ITEM: TIMESTEP
0
ITEM: NUMBER OF ATOMS
491
ITEM: BOX BOUNDS pp pp pp
-1.0000000000000000e+03 1.0000000000000000e+03
-1.0000000000000000e+03 1.0000000000000000e+03
-1.0000000000000000e+03 1.0000000000000000e+03
ITEM: ATOMS id x y z ix iy iz
1 0.00000 0.00000 0.00000 0 0 0
2 0.00000 0.00000 1.00000 0 0 0
3 0.00000 -0.50000 1.86603 0 0 0
4 0.00000 0.00000 2.73205 0 0 0
5 0.00000 -0.50000 3.59808 0 0 0
6 0.00000 0.00000 4.46410 0 0 0
7 0.00000 -0.50000 5.33013 0 0 0
8 0.00000 0.00000 6.19615 0 0 0
9 0.00000 -0.50000 7.06218 0 0 0
10 0.00000 0.00000 7.92820 0 0 0
11 0.00000 -0.50000 8.79423 0 0 0
12 0.00000 0.00000 9.66025 0 0 0
13 0.00000 -0.50000 10.52628 0 0 0
14 0.00000 0.00000 11.39230 0 0 0
15 0.00000 -0.50000 12.25833 0 0 0
16 0.00000 0.00000 13.12436 0 0 0
17 0.00000 -0.50000 13.99038 0 0 0
18 0.00000 0.00000 14.85641 0 0 0
19 0.00000 -0.50000 15.72243 0 0 0
20 0.00000 0.00000 16.58846 0 0 0
21 0.00000 -0.50000 17.45448 0 0 0
22 0.00000 0.00000 18.32051 0 0 0
23 0.00000 -0.50000 19.18653 0 0 0
24 0.70626 -0.12624 19.78777 0 0 0
25 1.41253 -0.10317 20.49535 0 0 0
26 2.11879 0.52114 20.82915 0 0 0
27 2.82506 0.54421 21.53672 0 0 0
28 3.53132 1.16852 21.87053 0 0 0
29 4.23759 1.19159 22.57810 0 0 0
30 4.94385 1.81590 22.91191 0 0 0
31 5.65012 1.83897 23.61948 0 0 0
32 6.35638 2.46328 23.95329 0 0 0
33 7.06265 2.48635 24.66086 0 0 0
34 7.76891 3.11066 24.99467 0 0 0
35 8.47518 3.13373 25.70224 0 0 0
36 9.18144 3.75804 26.03605 0 0 0
37 9.88771 3.78111 26.74362 0 0 0
38 10.59397 4.40542 27.07742 0 0 0
39 11.30024 4.42849 27.78500 0 0 0
40 12.00650 5.05280 28.11880 0 0 0
41 12.71277 5.07587 28.82637 0 0 0
42 13.41903 5.70018 29.16018 0 0 0
43 14.12530 5.72325 29.86775 0 0 0
44 14.83156 6.34756 30.20156 0 0 0
45 15.53783 6.37063 30.90913 0 0 0
46 0.18754 -1.46694 19.01372 0 0 0
47 0.37507 -2.21792 18.38059 0 0 0
48 0.56261 -3.14172 18.71440 0 0 0
49 0.75014 -3.89270 18.08127 0 0 0
50 0.93768 -4.81650 18.41507 0 0 0
51 1.12522 -5.56749 17.78195 0 0 0
52 1.31275 -6.49128 18.11575 0 0 0
53 1.50029 -7.24227 17.48262 0 0 0
54 1.68782 -8.16607 17.81643 0 0 0
55 1.87536 -8.91705 17.18330 0 0 0
56 2.06290 -9.84085 17.51711 0 0 0
57 2.25043 -10.59183 16.88398 0 0 0
58 2.43797 -11.51563 17.21778 0 0 0
59 2.62550 -12.26662 16.58466 0 0 0
60 2.81304 -13.19041 16.91846 0 0 0
61 3.00058 -13.94140 16.28533 0 0 0
62 3.18811 -14.86520 16.61914 0 0 0
63 3.37565 -15.61618 15.98601 0 0 0
64 3.56318 -16.53998 16.31982 0 0 0
65 3.75072 -17.29096 15.68669 0 0 0
66 3.93825 -18.21476 16.02049 0 0 0
67 4.12579 -18.96575 15.38737 0 0 0
68 -0.89380 -0.40754 19.62536 0 0 0
69 -1.78760 -0.54688 20.05163 0 0 0
70 -2.68140 -0.24739 20.38544 0 0 0
71 -3.57520 -0.38673 20.81171 0 0 0
72 -4.46900 -0.08724 21.14551 0 0 0
73 -5.36280 -0.22659 21.57178 0 0 0
74 -6.25661 0.07290 21.90559 0 0 0
75 -7.15041 -0.06644 22.33185 0 0 0
76 -8.04421 0.23305 22.66566 0 0 0
77 -8.93801 0.09371 23.09193 0 0 0
78 -9.83181 0.39320 23.42574 0 0 0
79 -10.72561 0.25386 23.85200 0 0 0
80 -11.61941 0.55334 24.18581 0 0 0
81 -12.51321 0.41400 24.61208 0 0 0
82 -13.40701 0.71349 24.94589 0 0 0
83 -14.30081 0.57415 25.37215 0 0 0
84 -15.19461 0.87364 25.70596 0 0 0
85 -16.08841 0.73430 26.13223 0 0 0
86 -16.98221 1.03379 26.46604 0 0 0
87 -17.87601 0.89444 26.89230 0 0 0
88 -18.76982 1.19393 27.22611 0 0 0
89 -19.66362 1.05459 27.65238 0 0 0
90 -20.55742 1.35408 27.98618 0 0 0
91 -20.47743 2.27062 28.37804 0 0 0
92 -20.39745 2.86845 29.17566 0 0 0
93 -20.31746 3.85813 29.05674 0 0 0
94 -20.23748 4.45595 29.85437 0 0 0
95 -20.15749 5.44563 29.73545 0 0 0
96 -20.07751 6.04346 30.53308 0 0 0
97 -19.99752 7.03313 30.41416 0 0 0
98 -19.91754 7.63096 31.21178 0 0 0
99 -19.83756 8.62063 31.09286 0 0 0
100 -19.75757 9.21846 31.89049 0 0 0
101 -19.67759 10.20814 31.77157 0 0 0
102 -19.59760 10.80596 32.56920 0 0 0
103 -19.51762 11.79564 32.45028 0 0 0
104 -19.43763 12.39347 33.24790 0 0 0
105 -19.35765 13.38314 33.12898 0 0 0
106 -19.27766 13.98097 33.92661 0 0 0
107 -19.19768 14.97065 33.80769 0 0 0
108 -19.11769 15.56847 34.60532 0 0 0
109 -19.03771 16.55815 34.48640 0 0 0
110 -18.95772 17.15597 35.28402 0 0 0
111 -18.87774 18.14565 35.16511 0 0 0
112 -18.79775 18.74348 35.96273 0 0 0
113 -20.88162 0.71933 28.68760 0 0 0
114 -21.20582 -0.18109 28.97767 0 0 0
115 -21.53002 -0.38010 29.90249 0 0 0
116 -21.85422 -1.28052 30.19255 0 0 0
117 -22.17842 -1.47952 31.11737 0 0 0
118 -22.50262 -2.37994 31.40744 0 0 0
119 -22.82682 -2.57894 32.33226 0 0 0
120 -23.15102 -3.47936 32.62233 0 0 0
121 -23.47522 -3.67837 33.54715 0 0 0
122 -23.79942 -4.57879 33.83722 0 0 0
123 -24.12362 -4.77779 34.76204 0 0 0
124 -24.44782 -5.67821 35.05210 0 0 0
125 -24.77202 -5.87721 35.97692 0 0 0
126 -25.09622 -6.77763 36.26699 0 0 0
127 -25.42042 -6.97664 37.19181 0 0 0
128 -25.74462 -7.87706 37.48188 0 0 0
129 -26.06882 -8.07606 38.40670 0 0 0
130 -26.39302 -8.97648 38.69676 0 0 0
131 -26.71722 -9.17548 39.62158 0 0 0
132 -27.04142 -10.07590 39.91165 0 0 0
133 -27.36562 -10.27491 40.83647 0 0 0
134 -27.68982 -11.17533 41.12654 0 0 0
135 -21.20827 1.37220 27.22720 0 0 0
136 -21.85913 1.76739 26.57896 0 0 0
137 -22.50998 1.40359 25.91260 0 0 0
138 -23.16084 1.79877 25.26436 0 0 0
139 -23.81169 1.43497 24.59799 0 0 0
140 -24.46255 1.83016 23.94975 0 0 0
141 -25.11340 1.46636 23.28339 0 0 0
142 -25.76426 1.86155 22.63515 0 0 0
143 -26.41511 1.49775 21.96879 0 0 0
144 -27.06597 1.89293 21.32055 0 0 0
145 -27.71682 1.52913 20.65419 0 0 0
146 -28.36767 1.92432 20.00595 0 0 0
147 -29.01853 1.56052 19.33959 0 0 0
148 -29.66938 1.95571 18.69135 0 0 0
149 -30.32024 1.59191 18.02498 0 0 0
150 -30.97109 1.98709 17.37674 0 0 0
151 -31.62195 1.62329 16.71038 0 0 0
152 -32.27280 2.01848 16.06214 0 0 0
153 -32.92366 1.65468 15.39578 0 0 0
154 -33.57451 2.04987 14.74754 0 0 0
155 -34.22537 1.68607 14.08118 0 0 0
156 -34.87622 2.08125 13.43294 0 0 0
157 -35.52708 1.71745 12.76657 0 0 0
158 -36.28874 2.35670 12.66058 0 0 0
159 -37.05040 2.96330 12.88840 0 0 0
160 -37.81206 3.46391 12.47698 0 0 0
161 -38.57372 4.07051 12.70481 0 0 0
162 -39.33538 4.57112 12.29338 0 0 0
163 -40.09705 5.17772 12.52121 0 0 0
164 -40.85871 5.67832 12.10979 0 0 0
165 -41.62037 6.28493 12.33761 0 0 0
166 -42.38203 6.78553 11.92619 0 0 0
167 -43.14369 7.39213 12.15402 0 0 0
168 -43.90535 7.89274 11.74260 0 0 0
169 -44.66701 8.49934 11.97042 0 0 0
170 -45.42867 8.99995 11.55900 0 0 0
171 -46.19033 9.60655 11.78683 0 0 0
172 -46.95200 10.10716 11.37540 0 0 0
173 -47.71366 10.71376 11.60323 0 0 0
174 -48.47532 11.21436 11.19181 0 0 0
175 -49.23698 11.82097 11.41963 0 0 0
176 -49.99864 12.32157 11.00821 0 0 0
177 -50.76030 12.92817 11.23604 0 0 0
178 -51.52196 13.42878 10.82462 0 0 0
179 -52.28362 14.03538 11.05244 0 0 0
180 -35.87443 0.83587 13.08620 0 0 0
181 -36.22179 -0.08741 12.92222 0 0 0
182 -36.56914 -0.69106 13.63982 0 0 0
183 -36.91650 -1.61435 13.47584 0 0 0
184 -37.26386 -2.21800 14.19344 0 0 0
185 -37.61121 -3.14129 14.02945 0 0 0
186 -37.95857 -3.74494 14.74705 0 0 0
187 -38.30592 -4.66823 14.58307 0 0 0
188 -38.65328 -5.27188 15.30067 0 0 0
189 -39.00063 -6.19517 15.13668 0 0 0
190 -39.34799 -6.79882 15.85428 0 0 0
191 -39.69534 -7.72210 15.69030 0 0 0
192 -40.04270 -8.32576 16.40790 0 0 0
193 -40.39006 -9.24904 16.24392 0 0 0
194 -40.73741 -9.85270 16.96151 0 0 0
195 -41.08477 -10.77598 16.79753 0 0 0
196 -41.43212 -11.37964 17.51513 0 0 0
197 -41.77948 -12.30292 17.35115 0 0 0
198 -42.12683 -12.90658 18.06874 0 0 0
199 -42.47419 -13.82986 17.90476 0 0 0
200 -42.82154 -14.43351 18.62236 0 0 0
201 -43.16890 -15.35680 18.45838 0 0 0
202 -35.06984 1.59547 11.88564 0 0 0
203 -34.61260 1.93030 11.06173 0 0 0
204 -34.15537 1.38419 10.35980 0 0 0
205 -33.69813 1.71901 9.53590 0 0 0
206 -33.24089 1.17290 8.83397 0 0 0
207 -32.78365 1.50773 8.01006 0 0 0
208 -32.32642 0.96162 7.30814 0 0 0
209 -31.86918 1.29645 6.48423 0 0 0
210 -31.41194 0.75033 5.78231 0 0 0
211 -30.95470 1.08516 4.95840 0 0 0
212 -30.49747 0.53905 4.25648 0 0 0
213 -30.04023 0.87388 3.43257 0 0 0
214 -29.58299 0.32777 2.73065 0 0 0
215 -29.12575 0.66260 1.90674 0 0 0
216 -28.66852 0.11648 1.20482 0 0 0
217 -28.21128 0.45131 0.38091 0 0 0
218 -27.75404 -0.09480 -0.32102 0 0 0
219 -27.29681 0.24003 -1.14492 0 0 0
220 -26.83957 -0.30608 -1.84685 0 0 0
221 -26.38233 0.02874 -2.67075 0 0 0
222 -25.92509 -0.51737 -3.37268 0 0 0
223 -25.46786 -0.18254 -4.19659 0 0 0
224 -25.01062 -0.72865 -4.89851 0 0 0
225 -25.69500 -1.21693 -5.43999 0 0 0
226 -26.37939 -1.36904 -6.15307 0 0 0
227 -27.06377 -2.06264 -6.37787 0 0 0
228 -27.74816 -2.21476 -7.09095 0 0 0
229 -28.43254 -2.90836 -7.31575 0 0 0
230 -29.11693 -3.06048 -8.02883 0 0 0
231 -29.80131 -3.75408 -8.25363 0 0 0
232 -30.48569 -3.90619 -8.96670 0 0 0
233 -31.17008 -4.59979 -9.19151 0 0 0
234 -31.85446 -4.75191 -9.90458 0 0 0
235 -32.53885 -5.44551 -10.12938 0 0 0
236 -33.22323 -5.59763 -10.84246 0 0 0
237 -33.90762 -6.29123 -11.06726 0 0 0
238 -34.59200 -6.44335 -11.78034 0 0 0
239 -35.27639 -7.13695 -12.00514 0 0 0
240 -35.96077 -7.28906 -12.71822 0 0 0
241 -36.64516 -7.98266 -12.94302 0 0 0
242 -37.32954 -8.13478 -13.65610 0 0 0
243 -38.01392 -8.82838 -13.88090 0 0 0
244 -38.69831 -8.98050 -14.59397 0 0 0
245 -39.38269 -9.67410 -14.81878 0 0 0
246 -40.06708 -9.82621 -15.53185 0 0 0
247 -24.39876 -1.38840 -4.46220 0 0 0
248 -23.78690 -2.17791 -4.41423 0 0 0
249 -23.17505 -2.53112 -3.70650 0 0 0
250 -22.56319 -3.32063 -3.65852 0 0 0
251 -21.95133 -3.67384 -2.95080 0 0 0
252 -21.33948 -4.46335 -2.90282 0 0 0
253 -20.72762 -4.81655 -2.19509 0 0 0
254 -20.11576 -5.60607 -2.14711 0 0 0
255 -19.50391 -5.95927 -1.43939 0 0 0
256 -18.89205 -6.74878 -1.39141 0 0 0
257 -18.28019 -7.10199 -0.68368 0 0 0
258 -17.66833 -7.89150 -0.63571 0 0 0
259 -17.05648 -8.24471 0.07202 0 0 0
260 -16.44462 -9.03422 0.12000 0 0 0
261 -15.83276 -9.38743 0.82772 0 0 0
262 -15.22091 -10.17694 0.87570 0 0 0
263 -14.60905 -10.53014 1.58343 0 0 0
264 -13.99719 -11.31966 1.63140 0 0 0
265 -13.38533 -11.67286 2.33913 0 0 0
266 -12.77348 -12.46237 2.38711 0 0 0
267 -12.16162 -12.81558 3.09484 0 0 0
268 -11.54976 -13.60509 3.14281 0 0 0
269 -24.48020 -0.12751 -5.49625 0 0 0
270 -23.94979 0.69196 -5.71334 0 0 0
271 -23.41938 0.91368 -6.53157 0 0 0
272 -22.88896 1.73316 -6.74866 0 0 0
273 -22.35855 1.95488 -7.56689 0 0 0
274 -21.82813 2.77435 -7.78398 0 0 0
275 -21.29772 2.99608 -8.60221 0 0 0
276 -20.76730 3.81555 -8.81930 0 0 0
277 -20.23689 4.03728 -9.63753 0 0 0
278 -19.70647 4.85675 -9.85462 0 0 0
279 -19.17606 5.07848 -10.67285 0 0 0
280 -18.64565 5.89795 -10.88994 0 0 0
281 -18.11523 6.11968 -11.70817 0 0 0
282 -17.58482 6.93915 -11.92526 0 0 0
283 -17.05440 7.16088 -12.74349 0 0 0
284 -16.52399 7.98035 -12.96058 0 0 0
285 -15.99357 8.20208 -13.77881 0 0 0
286 -15.46316 9.02155 -13.99590 0 0 0
287 -14.93275 9.24328 -14.81413 0 0 0
288 -14.40233 10.06275 -15.03122 0 0 0
289 -13.87192 10.28448 -15.84945 0 0 0
290 -13.34150 11.10395 -16.06654 0 0 0
291 -12.81109 11.32567 -16.88477 0 0 0
292 -12.05411 11.93075 -16.63805 0 0 0
293 -11.29713 12.33140 -16.12185 0 0 0
294 -10.54015 12.97877 -16.21073 0 0 0
295 -9.78317 13.37942 -15.69453 0 0 0
296 -9.02619 14.02679 -15.78341 0 0 0
297 -8.26921 14.42744 -15.26721 0 0 0
298 -7.51223 15.07481 -15.35609 0 0 0
299 -6.75525 15.47546 -14.83989 0 0 0
300 -5.99827 16.12283 -14.92877 0 0 0
301 -5.24129 16.52348 -14.41257 0 0 0
302 -4.48432 17.17084 -14.50145 0 0 0
303 -3.72734 17.57150 -13.98525 0 0 0
304 -2.97036 18.21886 -14.07413 0 0 0
305 -2.21338 18.61952 -13.55793 0 0 0
306 -1.45640 19.26688 -13.64681 0 0 0
307 -0.69942 19.66754 -13.13061 0 0 0
308 0.05756 20.31490 -13.21949 0 0 0
309 0.81454 20.71555 -12.70329 0 0 0
310 1.57152 21.36292 -12.79217 0 0 0
311 2.32850 21.76357 -12.27597 0 0 0
312 3.08548 22.41094 -12.36485 0 0 0
313 3.84246 22.81159 -11.84865 0 0 0
314 -13.40013 11.78389 -17.55040 0 0 0
315 -13.98917 12.51353 -17.89775 0 0 0
316 -14.57821 12.57754 -18.70332 0 0 0
317 -15.16725 13.30718 -19.05067 0 0 0
318 -15.75629 13.37119 -19.85624 0 0 0
319 -16.34533 14.10083 -20.20359 0 0 0
320 -16.93437 14.16484 -21.00915 0 0 0
321 -17.52340 14.89448 -21.35651 0 0 0
322 -18.11244 14.95848 -22.16207 0 0 0
323 -18.70148 15.68813 -22.50942 0 0 0
324 -19.29052 15.75213 -23.31499 0 0 0
325 -19.87956 16.48178 -23.66234 0 0 0
326 -20.46860 16.54578 -24.46791 0 0 0
327 -21.05764 17.27542 -24.81526 0 0 0
328 -21.64668 17.33943 -25.62082 0 0 0
329 -22.23572 18.06907 -25.96818 0 0 0
330 -22.82476 18.13308 -26.77374 0 0 0
331 -23.41380 18.86272 -27.12109 0 0 0
332 -24.00284 18.92673 -27.92666 0 0 0
333 -24.59188 19.65637 -28.27401 0 0 0
334 -25.18092 19.72038 -29.07958 0 0 0
335 -25.76996 20.45002 -29.42693 0 0 0
336 -12.44786 10.48443 -17.28523 0 0 0
337 -12.08463 9.95613 -18.05267 0 0 0
338 -11.72140 9.02735 -17.97886 0 0 0
339 -11.35818 8.49905 -18.74630 0 0 0
340 -10.99495 7.57028 -18.67249 0 0 0
341 -10.63172 7.04197 -19.43993 0 0 0
342 -10.26849 6.11320 -19.36612 0 0 0
343 -9.90526 5.58489 -20.13356 0 0 0
344 -9.54203 4.65612 -20.05975 0 0 0
345 -9.17881 4.12782 -20.82718 0 0 0
346 -8.81558 3.19904 -20.75338 0 0 0
347 -8.45235 2.67074 -21.52081 0 0 0
348 -8.08912 1.74197 -21.44701 0 0 0
349 -7.72589 1.21366 -22.21444 0 0 0
350 -7.36267 0.28489 -22.14064 0 0 0
351 -6.99944 -0.24342 -22.90807 0 0 0
352 -6.63621 -1.17219 -22.83426 0 0 0
353 -6.27298 -1.70049 -23.60170 0 0 0
354 -5.90975 -2.62927 -23.52789 0 0 0
355 -5.54653 -3.15757 -24.29533 0 0 0
356 -5.18330 -4.08634 -24.22152 0 0 0
357 -4.82007 -4.61465 -24.98896 0 0 0
358 -4.45684 -5.54342 -24.91515 0 0 0
359 -3.82509 -5.59429 -24.14165 0 0 0
360 -3.19335 -6.02510 -23.49721 0 0 0
361 -2.56160 -5.68241 -22.80190 0 0 0
362 -1.92985 -6.11321 -22.15746 0 0 0
363 -1.29811 -5.77052 -21.46215 0 0 0
364 -0.66636 -6.20133 -20.81771 0 0 0
365 -0.03461 -5.85863 -20.12240 0 0 0
366 0.59714 -6.28944 -19.47797 0 0 0
367 1.22888 -5.94674 -18.78266 0 0 0
368 1.86063 -6.37755 -18.13822 0 0 0
369 2.49238 -6.03485 -17.44291 0 0 0
370 3.12412 -6.46566 -16.79847 0 0 0
371 3.75587 -6.12297 -16.10316 0 0 0
372 4.38762 -6.55377 -15.45872 0 0 0
373 5.01936 -6.21108 -14.76341 0 0 0
374 5.65111 -6.64189 -14.11898 0 0 0
375 6.28286 -6.29919 -13.42367 0 0 0
376 6.91461 -6.73000 -12.77923 0 0 0
377 7.54635 -6.38730 -12.08392 0 0 0
378 8.17810 -6.81811 -11.43948 0 0 0
379 8.80985 -6.47542 -10.74417 0 0 0
380 9.44159 -6.90622 -10.09973 0 0 0
381 -3.97193 -5.78010 -25.75708 0 0 0
382 -3.48703 -5.56409 -26.60456 0 0 0
383 -3.00212 -6.19003 -27.21535 0 0 0
384 -2.51721 -5.97403 -28.06283 0 0 0
385 -2.03231 -6.59996 -28.67362 0 0 0
386 -1.54740 -6.38396 -29.52110 0 0 0
387 -1.06249 -7.00989 -30.13189 0 0 0
388 -0.57758 -6.79389 -30.97937 0 0 0
389 -0.09268 -7.41982 -31.59016 0 0 0
390 0.39223 -7.20382 -32.43764 0 0 0
391 0.87714 -7.82975 -33.04844 0 0 0
392 1.36204 -7.61375 -33.89591 0 0 0
393 1.84695 -8.23968 -34.50671 0 0 0
394 2.33186 -8.02368 -35.35418 0 0 0
395 2.81676 -8.64961 -35.96498 0 0 0
396 3.30167 -8.43361 -36.81245 0 0 0
397 3.78658 -9.05954 -37.42325 0 0 0
398 4.27149 -8.84354 -38.27072 0 0 0
399 4.75639 -9.46947 -38.88152 0 0 0
400 5.24130 -9.25347 -39.72899 0 0 0
401 5.72621 -9.87940 -40.33979 0 0 0
402 6.21111 -9.66340 -41.18726 0 0 0
403 -5.20975 -6.18597 -24.77281 0 0 0
404 -5.96266 -6.81360 -24.97081 0 0 0
405 -6.71557 -7.29889 -24.52627 0 0 0
406 -7.46848 -7.92652 -24.72427 0 0 0
407 -8.22139 -8.41181 -24.27972 0 0 0
408 -8.97430 -9.03945 -24.47773 0 0 0
409 -9.72721 -9.52474 -24.03318 0 0 0
410 -10.48012 -10.15237 -24.23118 0 0 0
411 -11.23303 -10.63766 -23.78664 0 0 0
412 -11.98594 -11.26529 -23.98464 0 0 0
413 -12.73885 -11.75058 -23.54010 0 0 0
414 -13.49176 -12.37821 -23.73810 0 0 0
415 -14.24467 -12.86350 -23.29355 0 0 0
416 -14.99758 -13.49114 -23.49155 0 0 0
417 -15.75049 -13.97643 -23.04701 0 0 0
418 -16.50340 -14.60406 -23.24501 0 0 0
419 -17.25631 -15.08935 -22.80047 0 0 0
420 -18.00922 -15.71698 -22.99847 0 0 0
421 -18.76213 -16.20227 -22.55392 0 0 0
422 -19.51504 -16.82990 -22.75193 0 0 0
423 -20.26795 -17.31519 -22.30738 0 0 0
424 -21.02086 -17.94283 -22.50538 0 0 0
425 -21.77377 -18.42812 -22.06084 0 0 0
426 -21.60507 -18.47585 -21.07633 0 0 0
427 -21.43637 -19.00944 -20.24758 0 0 0
428 -21.26767 -18.55852 -19.37110 0 0 0
429 -21.09897 -19.09211 -18.54236 0 0 0
430 -20.93027 -18.64119 -17.66588 0 0 0
431 -20.76158 -19.17478 -16.83713 0 0 0
432 -20.59288 -18.72386 -15.96066 0 0 0
433 -20.42418 -19.25745 -15.13191 0 0 0
434 -20.25548 -18.80653 -14.25543 0 0 0
435 -20.08678 -19.34012 -13.42669 0 0 0
436 -19.91808 -18.88920 -12.55021 0 0 0
437 -19.74938 -19.42279 -11.72146 0 0 0
438 -19.58068 -18.97187 -10.84498 0 0 0
439 -19.41199 -19.50546 -10.01624 0 0 0
440 -19.24329 -19.05454 -9.13976 0 0 0
441 -19.07459 -19.58813 -8.31101 0 0 0
442 -18.90589 -19.13721 -7.43454 0 0 0
443 -18.73719 -19.67080 -6.60579 0 0 0
444 -18.56849 -19.21988 -5.72931 0 0 0
445 -18.39979 -19.75347 -4.90057 0 0 0
446 -18.23109 -19.30255 -4.02409 0 0 0
447 -18.06240 -19.83614 -3.19534 0 0 0
448 -21.83972 -19.35413 -22.43253 0 0 0
449 -21.90567 -19.97023 -23.21743 0 0 0
450 -21.97162 -20.95803 -23.07631 0 0 0
451 -22.03757 -21.57413 -23.86121 0 0 0
452 -22.10352 -22.56193 -23.72010 0 0 0
453 -22.16947 -23.17803 -24.50499 0 0 0
454 -22.23542 -24.16583 -24.36388 0 0 0
455 -22.30137 -24.78193 -25.14878 0 0 0
456 -22.36732 -25.76973 -25.00766 0 0 0
457 -22.43327 -26.38583 -25.79256 0 0 0
458 -22.49922 -27.37363 -25.65145 0 0 0
459 -22.56516 -27.98973 -26.43635 0 0 0
460 -22.63111 -28.97753 -26.29523 0 0 0
461 -22.69706 -29.59363 -27.08013 0 0 0
462 -22.76301 -30.58143 -26.93902 0 0 0
463 -22.82896 -31.19753 -27.72391 0 0 0
464 -22.89491 -32.18533 -27.58280 0 0 0
465 -22.96086 -32.80143 -28.36770 0 0 0
466 -23.02681 -33.78923 -28.22658 0 0 0
467 -23.09276 -34.40533 -29.01148 0 0 0
468 -23.15871 -35.39313 -28.87037 0 0 0
469 -23.22466 -36.00923 -29.65526 0 0 0
470 -22.63050 -17.94036 -22.22849 0 0 0
471 -23.48722 -17.43412 -22.12979 0 0 0
472 -24.34395 -17.09553 -22.51886 0 0 0
473 -25.20068 -16.58929 -22.42016 0 0 0
474 -26.05741 -16.25070 -22.80923 0 0 0
475 -26.91414 -15.74446 -22.71054 0 0 0
476 -27.77087 -15.40587 -23.09960 0 0 0
477 -28.62759 -14.89964 -23.00091 0 0 0
478 -29.48432 -14.56105 -23.38997 0 0 0
479 -30.34105 -14.05481 -23.29128 0 0 0
480 -31.19778 -13.71622 -23.68035 0 0 0
481 -32.05451 -13.20998 -23.58165 0 0 0
482 -32.91124 -12.87139 -23.97072 0 0 0
483 -33.76796 -12.36515 -23.87202 0 0 0
484 -34.62469 -12.02656 -24.26109 0 0 0
485 -35.48142 -11.52033 -24.16240 0 0 0
486 -36.33815 -11.18174 -24.55146 0 0 0
487 -37.19488 -10.67550 -24.45277 0 0 0
488 -38.05161 -10.33691 -24.84184 0 0 0
489 -38.90833 -9.83067 -24.74314 0 0 0
490 -39.76506 -9.49208 -25.13221 0 0 0
491 -40.62179 -8.98584 -25.03351 0 0 0
ITEM: TIMESTEP
1000
ITEM: NUMBER OF ATOMS
491
ITEM: BOX BOUNDS pp pp pp
-1.0000000000000000e+03 1.0000000000000000e+03
-1.0000000000000000e+03 1.0000000000000000e+03
-1.0000000000000000e+03 1.0000000000000000e+03
ITEM: ATOMS id x y z ix iy iz
1 1.61055 -1.25845 6.14476 0 0 0
2 0.57386 -1.28175 6.09799 0 0 0
3 0.95136 -0.40881 6.01187 0 0 0
4 1.14024 0.08803 6.83844 0 0 0
5 0.75524 0.08544 7.74698 0 0 0
6 0.19230 -0.25778 8.51896 0 0 0
7 1.08800 -0.55174 8.95244 0 0 0
8 1.35172 -1.46102 9.19499 0 0 0
9 1.71063 -2.15981 9.76221 0 0 0
10 0.96098 -2.06665 10.34710 0 0 0
11 0.54973 -1.59649 11.06393 0 0 0
12 0.66544 -1.07860 11.90626 0 0 0
13 -0.24035 -1.50641 11.89076 0 0 0
14 0.05774 -1.91685 12.80187 0 0 0
15 0.08014 -2.37300 13.73844 0 0 0
16 0.07011 -1.60902 14.32738 0 0 0
17 -0.74230 -1.96054 14.87772 0 0 0
18 -1.02863 -2.00586 15.83452 0 0 0
19 -0.48075 -1.90349 16.66253 0 0 0
20 -0.67851 -1.35164 17.45701 0 0 0
21 -0.80600 -0.87273 18.27214 0 0 0
22 -0.76328 -1.04399 19.20630 0 0 0
23 -0.63371 -1.03113 20.16701 0 0 0
24 -0.27156 -0.11418 20.06522 0 0 0
25 0.67996 0.15589 20.42008 0 0 0
26 1.55373 0.54492 19.99739 0 0 0
27 2.18669 1.01740 20.54304 0 0 0
28 2.98680 1.54711 20.58171 0 0 0
29 3.93445 1.42789 20.58896 0 0 0
30 4.66674 1.41626 19.92600 0 0 0
31 5.36214 2.05768 20.11880 0 0 0
32 5.76283 1.76983 20.96592 0 0 0
33 6.23984 1.57276 21.76999 0 0 0
34 6.70005 1.15528 22.48999 0 0 0
35 7.16635 0.91999 23.29444 0 0 0
36 7.20586 0.94449 24.26670 0 0 0
37 7.68301 1.27278 25.07058 0 0 0
38 8.00447 1.88208 25.79627 0 0 0
39 8.84656 2.24567 26.22529 0 0 0
40 9.47454 2.55473 26.97368 0 0 0
41 8.87350 2.95964 27.66970 0 0 0
42 9.15830 3.66164 28.28102 0 0 0
43 9.10972 4.60059 28.53242 0 0 0
44 8.47958 5.05036 29.14215 0 0 0
45 9.40753 5.18485 29.38966 0 0 0
46 -0.49671 -1.73406 20.79466 0 0 0
47 -0.11393 -2.58682 20.62491 0 0 0
48 0.25887 -3.20737 19.98341 0 0 0
49 -0.07766 -4.01257 19.52196 0 0 0
50 -0.50100 -4.26980 18.61793 0 0 0
51 0.11933 -5.02660 18.13804 0 0 0
52 0.47510 -5.70013 17.35665 0 0 0
53 0.29904 -6.69004 17.40896 0 0 0
54 0.69871 -7.62346 17.63111 0 0 0
55 1.41360 -8.21492 18.10852 0 0 0
56 2.12377 -7.87832 18.80629 0 0 0
57 2.95458 -8.26374 18.47348 0 0 0
58 3.23893 -9.17745 18.42175 0 0 0
59 3.71995 -9.85348 17.92748 0 0 0
60 3.09701 -10.61660 17.67991 0 0 0
61 2.25788 -10.67261 17.17730 0 0 0
62 2.15158 -10.50256 16.23463 0 0 0
63 1.78995 -10.52940 15.33323 0 0 0
64 2.20177 -10.95807 14.55838 0 0 0
65 2.70982 -11.78727 14.52231 0 0 0
66 2.91884 -12.58999 13.92850 0 0 0
67 2.01866 -12.68294 13.67289 0 0 0
68 -1.44323 -0.73129 20.71008 0 0 0
69 -2.31091 -1.32534 20.52373 0 0 0
70 -3.26333 -1.41483 20.64307 0 0 0
71 -3.91129 -0.74973 20.89558 0 0 0
72 -4.90119 -0.78847 21.12538 0 0 0
73 -5.85203 -0.64275 21.29885 0 0 0
74 -6.79280 -0.28182 21.40171 0 0 0
75 -7.72852 -0.31690 21.82136 0 0 0
76 -8.59848 -0.02389 22.04479 0 0 0
77 -9.47951 0.13633 22.37217 0 0 0
78 -9.99256 0.49017 23.11670 0 0 0
79 -10.72366 -0.14115 23.27453 0 0 0
80 -11.56342 -0.33947 23.59827 0 0 0
81 -12.41965 -0.21610 24.17245 0 0 0
82 -13.49719 -0.44242 24.16871 0 0 0
83 -14.40273 -0.32950 24.45576 0 0 0
84 -15.26860 -0.11671 24.89445 0 0 0
85 -15.83922 0.14834 25.66449 0 0 0
86 -16.60474 -0.09944 26.15832 0 0 0
87 -17.08515 -0.02464 27.05469 0 0 0
88 -18.03970 -0.39004 27.15196 0 0 0
89 -18.83210 0.10113 27.20707 0 0 0
90 -19.86807 0.23980 27.31666 0 0 0
91 -19.84658 1.25726 27.29010 0 0 0
92 -19.46224 2.24247 27.40984 0 0 0
93 -19.34119 3.17325 27.69263 0 0 0
94 -18.86034 3.98264 27.81025 0 0 0
95 -19.46907 4.60922 28.22147 0 0 0
96 -20.19725 5.22642 27.96988 0 0 0
97 -20.02780 5.70812 28.77592 0 0 0
98 -19.77765 6.20396 29.58997 0 0 0
99 -19.59608 7.13940 29.93381 0 0 0
100 -19.42164 7.86167 30.59302 0 0 0
101 -19.61406 8.56444 31.19559 0 0 0
102 -19.67040 8.19230 32.12318 0 0 0
103 -18.89910 8.78688 31.98772 0 0 0
104 -19.16317 9.35484 32.71943 0 0 0
105 -19.06837 10.29633 33.00038 0 0 0
106 -19.27755 11.29217 33.13352 0 0 0
107 -19.30377 12.27419 33.17892 0 0 0
108 -19.24249 13.23691 33.42485 0 0 0
109 -19.74864 13.94867 33.07641 0 0 0
110 -19.79367 14.79352 32.57399 0 0 0
111 -20.06731 15.15387 31.62756 0 0 0
112 -20.78697 15.18924 30.96852 0 0 0
113 -20.26810 -0.64438 27.46855 0 0 0
114 -20.61081 -1.48837 27.78976 0 0 0
115 -20.00166 -1.77612 28.46265 0 0 0
116 -19.85057 -2.08776 29.38464 0 0 0
117 -20.52685 -1.91208 30.11303 0 0 0
118 -21.42416 -1.75532 30.13310 0 0 0
119 -22.30584 -2.12170 30.54819 0 0 0
120 -22.67231 -2.67970 31.21547 0 0 0
121 -23.00131 -3.16353 31.98616 0 0 0
122 -23.76510 -3.83250 32.21094 0 0 0
123 -23.37226 -3.76854 33.12461 0 0 0
124 -23.29838 -4.52515 33.83104 0 0 0
125 -23.28567 -5.00507 34.69726 0 0 0
126 -23.95705 -5.85843 34.90562 0 0 0
127 -23.92142 -6.40064 35.71634 0 0 0
128 -23.13215 -6.71905 36.04190 0 0 0
129 -22.88192 -7.42758 36.72430 0 0 0
130 -23.41060 -8.09848 36.33296 0 0 0
131 -23.76787 -8.62162 35.59055 0 0 0
132 -24.43839 -8.87777 36.26196 0 0 0
133 -24.62981 -9.69315 35.78573 0 0 0
134 -24.75384 -9.86979 36.80423 0 0 0
135 -20.44532 0.25505 26.57140 0 0 0
136 -21.28742 0.38431 26.07311 0 0 0
137 -21.94952 -0.09922 25.54976 0 0 0
138 -22.36196 0.00718 24.69756 0 0 0
139 -23.28054 0.02670 24.29193 0 0 0
140 -24.01097 0.22024 23.66240 0 0 0
141 -24.91415 0.50259 23.47314 0 0 0
142 -25.41343 1.20183 22.85200 0 0 0
143 -25.81135 0.65866 22.01097 0 0 0
144 -26.58231 0.83542 21.47731 0 0 0
145 -27.27835 0.58905 20.89828 0 0 0
146 -27.99884 1.15154 21.22901 0 0 0
147 -28.68099 1.72405 20.74450 0 0 0
148 -29.22761 1.98319 19.91479 0 0 0
149 -29.78122 1.87133 19.16037 0 0 0
150 -30.09815 2.00631 18.26182 0 0 0
151 -30.57160 1.93991 17.43654 0 0 0
152 -31.02039 2.29120 16.59945 0 0 0
153 -31.85746 2.42211 15.85102 0 0 0
154 -32.67035 2.78733 15.35685 0 0 0
155 -33.53225 2.90062 14.79439 0 0 0
156 -34.25559 2.59630 14.05638 0 0 0
157 -34.60853 2.52823 13.04442 0 0 0
158 -35.24404 3.12892 12.62359 0 0 0
159 -35.80974 3.84511 12.29712 0 0 0
160 -36.73741 4.07496 12.00393 0 0 0
161 -37.43252 4.73131 12.03650 0 0 0
162 -37.72854 5.49683 12.61080 0 0 0
163 -38.60133 5.90933 12.56615 0 0 0
164 -39.52125 6.42122 12.43147 0 0 0
165 -40.07982 6.76866 11.77252 0 0 0
166 -40.66951 7.56247 11.91600 0 0 0
167 -41.65692 7.37756 11.87956 0 0 0
168 -42.14510 8.14697 12.00614 0 0 0
169 -43.03931 7.84616 12.33878 0 0 0
170 -43.80449 8.02079 12.84707 0 0 0
171 -44.59105 8.61074 12.66628 0 0 0
172 -44.79657 9.48638 12.88548 0 0 0
173 -45.68849 9.69761 12.78408 0 0 0
174 -45.58434 10.72055 12.89867 0 0 0
175 -45.96089 11.03075 12.08942 0 0 0
176 -46.74963 10.67744 11.64274 0 0 0
177 -46.59863 10.80789 10.63551 0 0 0
178 -46.93056 10.93318 9.69878 0 0 0
179 -46.72420 10.47288 8.88383 0 0 0
180 -35.18327 1.69646 13.07051 0 0 0
181 -35.70837 0.92503 13.42138 0 0 0
182 -36.57534 0.55145 13.83321 0 0 0
183 -37.26150 -0.08948 13.47041 0 0 0
184 -37.70843 -0.86266 13.79182 0 0 0
185 -38.37959 -1.63071 13.84171 0 0 0
186 -38.41392 -2.03138 14.76125 0 0 0
187 -38.47021 -2.50508 15.57217 0 0 0
188 -38.88282 -3.36852 15.33214 0 0 0
189 -39.29032 -4.24907 15.74298 0 0 0
190 -38.64276 -4.71161 15.06668 0 0 0
191 -39.29780 -5.35948 15.33696 0 0 0
192 -39.51529 -5.97301 14.56280 0 0 0
193 -40.14395 -6.44698 13.96588 0 0 0
194 -40.31188 -6.94314 13.13533 0 0 0
195 -40.72038 -7.70176 12.55937 0 0 0
196 -41.57410 -8.00271 12.66407 0 0 0
197 -41.38356 -8.86074 12.28754 0 0 0
198 -40.62014 -9.36565 12.01601 0 0 0
199 -40.24577 -9.48304 12.97856 0 0 0
200 -40.68202 -8.73481 13.55818 0 0 0
201 -40.29777 -8.99575 14.39586 0 0 0
202 -34.17244 2.74987 12.13346 0 0 0
203 -33.85571 2.20843 11.31143 0 0 0
204 -33.27808 1.60386 10.77973 0 0 0
205 -32.92310 1.94312 9.94500 0 0 0
206 -32.39444 2.15734 9.10765 0 0 0
207 -32.27897 1.71371 8.25362 0 0 0
208 -31.66541 1.33581 7.61907 0 0 0
209 -31.10603 1.51585 6.90445 0 0 0
210 -30.36036 1.62329 6.23170 0 0 0
211 -29.80382 1.32591 5.47954 0 0 0
212 -29.29833 1.10995 4.69368 0 0 0
213 -29.49460 1.00514 3.77210 0 0 0
214 -29.89359 0.79132 2.89641 0 0 0
215 -29.99219 0.78160 1.88153 0 0 0
216 -29.45562 0.62814 1.08600 0 0 0
217 -29.77183 -0.05555 0.51431 0 0 0
218 -29.25218 -0.40117 -0.25820 0 0 0
219 -28.95665 -0.67127 -1.22814 0 0 0
220 -28.30388 -0.14766 -1.72548 0 0 0
221 -27.59420 -0.10500 -2.39890 0 0 0
222 -27.32539 0.33576 -3.24878 0 0 0
223 -26.77206 0.26133 -4.09001 0 0 0
224 -25.94728 0.01211 -4.54588 0 0 0
225 -25.56309 -0.71672 -5.07355 0 0 0
226 -26.47624 -1.04077 -5.42057 0 0 0
227 -26.60940 -1.64234 -6.13298 0 0 0
228 -27.30843 -1.95269 -6.73823 0 0 0
229 -26.95997 -2.88985 -6.71665 0 0 0
230 -27.77441 -3.37051 -7.05130 0 0 0
231 -28.65042 -3.35723 -7.42784 0 0 0
232 -29.36767 -3.55856 -7.99385 0 0 0
233 -30.03156 -3.61304 -8.74959 0 0 0
234 -30.93193 -3.53681 -9.23276 0 0 0
235 -31.35149 -2.76461 -9.61178 0 0 0
236 -32.18907 -3.10588 -9.31536 0 0 0
237 -32.73737 -3.09710 -10.11070 0 0 0
238 -32.56048 -3.83774 -10.68833 0 0 0
239 -33.06806 -3.28040 -11.23834 0 0 0
240 -33.52196 -3.64810 -12.05938 0 0 0
241 -34.51584 -3.84940 -12.02944 0 0 0
242 -35.15777 -4.13346 -12.66908 0 0 0
243 -35.49398 -4.98184 -12.85355 0 0 0
244 -36.09363 -5.48604 -13.49509 0 0 0
245 -36.67541 -5.42563 -14.27321 0 0 0
246 -37.59831 -5.28511 -14.42481 0 0 0
247 -25.49550 -0.16943 -3.69257 0 0 0
248 -25.77878 -1.14825 -3.59210 0 0 0
249 -24.87385 -1.47396 -3.49312 0 0 0
250 -23.95144 -1.57841 -3.06923 0 0 0
251 -23.60251 -2.34544 -2.54617 0 0 0
252 -23.65059 -3.21781 -2.07106 0 0 0
253 -23.45149 -4.17515 -2.14648 0 0 0
254 -23.01161 -5.11061 -2.37542 0 0 0
255 -22.39652 -5.24839 -1.65434 0 0 0
256 -21.60293 -5.32149 -1.11115 0 0 0
257 -21.48820 -6.34167 -1.12953 0 0 0
258 -21.04086 -7.21857 -0.92522 0 0 0
259 -20.67495 -7.74580 -0.17325 0 0 0
260 -19.84591 -7.94262 0.29194 0 0 0
261 -18.90598 -7.98943 -0.12228 0 0 0
262 -18.65389 -7.07408 0.10990 0 0 0
263 -17.93537 -7.65438 0.59470 0 0 0
264 -17.13341 -7.93185 0.16911 0 0 0
265 -16.33094 -8.49054 0.13754 0 0 0
266 -15.62196 -9.00502 -0.37079 0 0 0
267 -15.06986 -9.82097 -0.06958 0 0 0
268 -14.89200 -10.62957 0.48179 0 0 0
269 -25.18066 0.58712 -4.62260 0 0 0
270 -24.61546 0.82639 -5.43010 0 0 0
271 -24.45920 1.34510 -6.23127 0 0 0
272 -24.32057 2.07406 -6.89647 0 0 0
273 -24.27770 2.60314 -7.82026 0 0 0
274 -23.43246 2.87164 -8.24670 0 0 0
275 -22.60756 3.45424 -8.50960 0 0 0
276 -21.75129 3.68128 -8.98671 0 0 0
277 -21.06820 4.31178 -9.28329 0 0 0
278 -20.42638 4.95216 -9.60634 0 0 0
279 -19.77582 5.40052 -10.18636 0 0 0
280 -19.14231 5.91379 -10.64808 0 0 0
281 -18.97534 6.52909 -11.39946 0 0 0
282 -18.17146 6.83409 -11.80280 0 0 0
283 -17.48645 7.26608 -12.31912 0 0 0
284 -16.69441 7.57927 -12.74342 0 0 0
285 -15.86302 7.97203 -13.36603 0 0 0
286 -15.27858 8.16748 -14.16264 0 0 0
287 -14.40492 8.46352 -13.99820 0 0 0
288 -13.89809 9.12230 -14.42597 0 0 0
289 -13.58170 9.29052 -15.37674 0 0 0
290 -12.99667 9.96946 -15.73018 0 0 0
291 -13.00548 10.43758 -16.59489 0 0 0
292 -12.68632 11.45380 -16.74191 0 0 0
293 -12.18356 12.35844 -16.63413 0 0 0
294 -11.27373 12.56407 -16.74682 0 0 0
295 -10.62724 13.08651 -16.39506 0 0 0
296 -9.93837 13.56193 -16.93029 0 0 0
297 -8.99926 13.84212 -16.83774 0 0 0
298 -8.40663 14.60240 -16.48004 0 0 0
299 -7.93197 14.63482 -15.60372 0 0 0
300 -7.08869 14.97147 -15.37494 0 0 0
301 -6.74988 15.79887 -14.97182 0 0 0