ITEM: TIMESTEP
0
ITEM: NUMBER OF ATOMS
397
ITEM: BOX BOUNDS pp pp pp
-1.0000000000000000e+03 1.0000000000000000e+03
-1.0000000000000000e+03 1.0000000000000000e+03
-1.0000000000000000e+03 1.0000000000000000e+03
ITEM: ATOMS id x y z ix iy iz
1 0.00000 0.00000 0.00000 0 0 0
2 0.00000 0.00000 1.00000 0 0 0
3 0.00000 -0.50000 1.86603 0 0 0
4 0.00000 0.00000 2.73205 0 0 0
5 0.00000 -0.50000 3.59808 0 0 0
6 0.00000 0.00000 4.46410 0 0 0
7 0.00000 -0.50000 5.33013 0 0 0
8 0.00000 0.00000 6.19615 0 0 0
9 0.00000 -0.50000 7.06218 0 0 0
10 0.00000 0.00000 7.92820 0 0 0
11 0.00000 -0.50000 8.79423 0 0 0
12 0.00000 0.00000 9.66025 0 0 0
13 0.00000 -0.50000 10.52628 0 0 0
14 0.00000 0.00000 11.39230 0 0 0
15 0.00000 -0.50000 12.25833 0 0 0
16 0.00000 0.00000 13.12436 0 0 0
17 0.00000 -0.50000 13.99038 0 0 0
18 0.00000 0.00000 14.85641 0 0 0
19 0.00000 -0.50000 15.72243 0 0 0
20 0.69820 -1.21537 15.69486 0 0 0
21 1.39640 -1.82111 15.31330 0 0 0
22 2.09460 -2.45443 15.64710 0 0 0
23 2.79280 -3.06017 15.26554 0 0 0
24 3.49100 -3.69349 15.59935 0 0 0
25 4.18921 -4.29923 15.21778 0 0 0
26 4.88741 -4.93255 15.55159 0 0 0
27 5.58561 -5.53829 15.17002 0 0 0
28 6.28381 -6.17160 15.50383 0 0 0
29 6.98201 -6.77735 15.12227 0 0 0
30 7.68021 -7.41066 15.45607 0 0 0
31 8.37841 -8.01641 15.07451 0 0 0
32 9.07661 -8.64972 15.40832 0 0 0
33 9.77481 -9.25546 15.02675 0 0 0
34 10.47301 -9.88878 15.36056 0 0 0
35 11.17121 -10.49452 14.97900 0 0 0
36 11.86942 -11.12784 15.31280 0 0 0
37 12.56762 -11.73358 14.93124 0 0 0
38 -0.89757 -0.91632 15.86752 0 0 0
39 -1.79514 -1.34941 15.78500 0 0 0
40 -2.69270 -1.63741 16.11881 0 0 0
41 -3.59027 -2.07049 16.03630 0 0 0
42 -4.48784 -2.35850 16.37010 0 0 0
43 -5.38541 -2.79158 16.28759 0 0 0
44 -6.28297 -3.07959 16.62140 0 0 0
45 -7.18054 -3.51267 16.53888 0 0 0
46 -8.07811 -3.80067 16.87269 0 0 0
47 -8.97568 -4.23376 16.79018 0 0 0
48 -9.87325 -4.52176 17.12398 0 0 0
49 -10.77081 -4.95485 17.04147 0 0 0
50 -11.66838 -5.24285 17.37528 0 0 0
51 -12.56595 -5.67594 17.29276 0 0 0
52 -13.46352 -5.96394 17.62657 0 0 0
53 -14.36108 -6.39702 17.54406 0 0 0
54 -15.25865 -6.68503 17.87786 0 0 0
55 -16.15622 -7.11811 17.79535 0 0 0
56 0.19937 0.13098 16.47218 0 0 0
57 0.39873 0.30255 17.43696 0 0 0
58 0.59810 1.22387 17.77077 0 0 0
59 0.79747 1.39545 18.73556 0 0 0
60 0.99683 2.31676 19.06937 0 0 0
61 1.19620 2.48834 20.03415 0 0 0
62 1.39557 3.40965 20.36796 0 0 0
63 1.59493 3.58123 21.33275 0 0 0
64 1.79430 4.50254 21.66655 0 0 0
65 1.99367 4.67412 22.63134 0 0 0
66 2.19303 5.59544 22.96515 0 0 0
67 2.39240 5.76701 23.92994 0 0 0
68 2.59177 6.68833 24.26374 0 0 0
69 2.79114 6.85990 25.22853 0 0 0
70 2.99050 7.78122 25.56234 0 0 0
71 3.18987 7.95279 26.52713 0 0 0
72 3.38924 8.87411 26.86093 0 0 0
73 3.58860 9.04568 27.82572 0 0 0
74 4.37123 8.49118 28.10860 0 0 0
75 5.15386 7.86953 28.07632 0 0 0
76 5.93649 7.53075 28.59855 0 0 0
77 6.71912 6.90910 28.56628 0 0 0
78 7.50175 6.57032 29.08851 0 0 0
79 8.28437 5.94867 29.05623 0 0 0
80 9.06700 5.60989 29.57846 0 0 0
81 9.84963 4.98824 29.54619 0 0 0
82 10.63226 4.64947 30.06841 0 0 0
83 11.41489 4.02781 30.03614 0 0 0
84 12.19752 3.68904 30.55837 0 0 0
85 12.98015 3.06739 30.52609 0 0 0
86 13.76277 2.72861 31.04832 0 0 0
87 14.54540 2.10696 31.01605 0 0 0
88 15.32803 1.76818 31.53828 0 0 0
89 16.11066 1.14653 31.50600 0 0 0
90 16.89329 0.80775 32.02823 0 0 0
91 17.67592 0.18610 31.99596 0 0 0
92 2.79178 8.80377 28.37939 0 0 0
93 1.99495 8.31744 28.73793 0 0 0
94 1.19813 8.38477 29.33837 0 0 0
95 0.40130 7.89844 29.69691 0 0 0
96 -0.39552 7.96577 30.29735 0 0 0
97 -1.19235 7.47944 30.65589 0 0 0
98 -1.98918 7.54677 31.25634 0 0 0
99 -2.78600 7.06044 31.61487 0 0 0
100 -3.58283 7.12777 32.21532 0 0 0
101 -4.37965 6.64144 32.57385 0 0 0
102 -5.17648 6.70877 33.17430 0 0 0
103 -5.97330 6.22244 33.53284 0 0 0
104 -6.77013 6.28977 34.13328 0 0 0
105 -7.56695 5.80344 34.49182 0 0 0
106 -8.36378 5.87078 35.09226 0 0 0
107 -9.16061 5.38444 35.45080 0 0 0
108 -9.95743 5.45178 36.05125 0 0 0
109 -10.75426 4.96544 36.40978 0 0 0
110 3.80245 10.01391 27.95533 0 0 0
111 4.01630 10.78762 28.55170 0 0 0
112 4.23014 11.69094 28.17983 0 0 0
113 4.44399 12.46464 28.77620 0 0 0
114 4.65784 13.36796 28.40433 0 0 0
115 4.87168 14.14166 29.00070 0 0 0
116 5.08553 15.04498 28.62883 0 0 0
117 5.29938 15.81869 29.22519 0 0 0
118 5.51323 16.72201 28.85333 0 0 0
119 5.72707 17.49571 29.44969 0 0 0
120 5.94092 18.39903 29.07783 0 0 0
121 6.15477 19.17274 29.67419 0 0 0
122 6.36861 20.07606 29.30233 0 0 0
123 6.58246 20.84976 29.89869 0 0 0
124 6.79631 21.75308 29.52682 0 0 0
125 7.01015 22.52678 30.12319 0 0 0
126 7.22400 23.43010 29.75132 0 0 0
127 7.43785 24.20381 30.34769 0 0 0
128 7.09736 24.01879 31.26955 0 0 0
129 6.75687 23.39763 31.97540 0 0 0
130 6.41638 23.69833 32.86627 0 0 0
131 6.07589 23.07717 33.57212 0 0 0
132 5.73541 23.37787 34.46299 0 0 0
133 5.39492 22.75671 35.16884 0 0 0
134 5.05443 23.05741 36.05971 0 0 0
135 4.71394 22.43625 36.76556 0 0 0
136 4.37345 22.73696 37.65643 0 0 0
137 4.03296 22.11579 38.36228 0 0 0
138 3.69248 22.41650 39.25314 0 0 0
139 3.35199 21.79533 39.95899 0 0 0
140 3.01150 22.09604 40.84986 0 0 0
141 2.67101 21.47488 41.55571 0 0 0
142 2.33052 21.77558 42.44658 0 0 0
143 1.99003 21.15442 43.15243 0 0 0
144 1.64954 21.45512 44.04330 0 0 0
145 1.30906 20.83396 44.74915 0 0 0
146 7.00192 25.03030 29.99148 0 0 0
147 6.56599 25.92416 30.09624 0 0 0
148 6.13006 26.46181 29.37451 0 0 0
149 5.69413 27.35568 29.47927 0 0 0
150 5.25820 27.89333 28.75755 0 0 0
151 4.82227 28.78720 28.86231 0 0 0
152 4.38634 29.32485 28.14058 0 0 0
153 3.95041 30.21872 28.24534 0 0 0
154 3.51448 30.75637 27.52361 0 0 0
155 3.07855 31.65024 27.62837 0 0 0
156 2.64262 32.18789 26.90664 0 0 0
157 2.20669 33.08175 27.01141 0 0 0
158 1.77076 33.61941 26.28968 0 0 0
159 1.33483 34.51327 26.39444 0 0 0
160 0.89890 35.05093 25.67271 0 0 0
161 0.46297 35.94479 25.77747 0 0 0
162 0.02704 36.48245 25.05574 0 0 0
163 -0.40889 37.37631 25.16050 0 0 0
164 8.42842 24.33714 30.37924 0 0 0
165 9.41899 24.43683 30.47323 0 0 0
166 10.40955 24.56808 30.43389 0 0 0
167 11.40012 24.66777 30.52788 0 0 0
168 12.39069 24.79902 30.48854 0 0 0
169 13.38126 24.89871 30.58253 0 0 0
170 14.37183 25.02996 30.54319 0 0 0
171 15.36240 25.12965 30.63718 0 0 0
172 16.35297 25.26090 30.59784 0 0 0
173 17.34354 25.36059 30.69183 0 0 0
174 18.33411 25.49184 30.65249 0 0 0
175 19.32468 25.59153 30.74648 0 0 0
176 20.31524 25.72278 30.70714 0 0 0
177 21.30581 25.82247 30.80113 0 0 0
178 22.29638 25.95372 30.76179 0 0 0
179 23.28695 26.05341 30.85578 0 0 0
180 24.27752 26.18465 30.81643 0 0 0
181 25.26809 26.28435 30.91043 0 0 0
182 25.70009 25.38365 30.86445 0 0 0
183 26.13208 24.62660 30.37428 0 0 0
184 26.56408 23.82358 30.78482 0 0 0
185 26.99608 23.06654 30.29465 0 0 0
186 27.42807 22.26352 30.70518 0 0 0
187 27.86007 21.50648 30.21501 0 0 0
188 28.29207 20.70346 30.62555 0 0 0
189 28.72406 19.94642 30.13538 0 0 0
190 29.15606 19.14340 30.54592 0 0 0
191 29.58806 18.38635 30.05575 0 0 0
192 30.02005 17.58333 30.46628 0 0 0
193 30.45205 16.82629 29.97611 0 0 0
194 30.88405 16.02327 30.38665 0 0 0
195 31.31604 15.26623 29.89648 0 0 0
196 31.74804 14.46321 30.30701 0 0 0
197 32.18004 13.70617 29.81685 0 0 0
198 32.61203 12.90315 30.22738 0 0 0
199 33.04403 12.14610 29.73721 0 0 0
200 25.47873 26.71001 31.79045 0 0 0
201 25.68937 26.63864 32.76540 0 0 0
202 25.90002 27.44728 33.31469 0 0 0
203 26.11066 27.37591 34.28965 0 0 0
204 26.32130 28.18455 34.83894 0 0 0
205 26.53195 28.11318 35.81389 0 0 0
206 26.74259 28.92183 36.36318 0 0 0
207 26.95323 28.85045 37.33813 0 0 0
208 27.16388 29.65910 37.88742 0 0 0
209 27.37452 29.58772 38.86238 0 0 0
210 27.58516 30.39637 39.41167 0 0 0
211 27.79581 30.32499 40.38662 0 0 0
212 28.00645 31.13364 40.93591 0 0 0
213 28.21709 31.06226 41.91087 0 0 0
214 28.42773 31.87091 42.46016 0 0 0
215 28.63838 31.79953 43.43511 0 0 0
216 28.84902 32.60818 43.98440 0 0 0
217 29.05966 32.53680 44.95935 0 0 0
218 25.61742 26.85922 30.17050 0 0 0
219 25.96676 27.72704 29.81715 0 0 0
220 26.31610 27.85493 28.88892 0 0 0
221 26.66543 28.72275 28.53557 0 0 0
222 27.01477 28.85065 27.60734 0 0 0
223 27.36411 29.71846 27.25399 0 0 0
224 27.71344 29.84636 26.32576 0 0 0
225 28.06278 30.71417 25.97241 0 0 0
226 28.41211 30.84207 25.04418 0 0 0
227 28.76145 31.70988 24.69082 0 0 0
228 29.11079 31.83778 23.76260 0 0 0
229 29.46012 32.70560 23.40924 0 0 0
230 29.80946 32.83349 22.48101 0 0 0
231 30.15880 33.70131 22.12766 0 0 0
232 30.50813 33.82920 21.19943 0 0 0
233 30.85747 34.69702 20.84608 0 0 0
234 31.20681 34.82491 19.91785 0 0 0
235 31.55614 35.69273 19.56450 0 0 0
236 32.07120 36.16208 20.28173 0 0 0
237 32.58626 36.20994 21.13754 0 0 0
238 33.10132 36.97503 21.52401 0 0 0
239 33.61638 37.02289 22.37982 0 0 0
240 34.13144 37.78798 22.76629 0 0 0
241 34.64650 37.83583 23.62210 0 0 0
242 35.16156 38.60092 24.00856 0 0 0
243 35.67662 38.64878 24.86438 0 0 0
244 36.19168 39.41387 25.25084 0 0 0
245 36.70674 39.46173 26.10666 0 0 0
246 37.22180 40.22681 26.49312 0 0 0
247 37.73686 40.27467 27.34894 0 0 0
248 38.25192 41.03976 27.73540 0 0 0
249 38.76698 41.08762 28.59122 0 0 0
250 39.28204 41.85271 28.97768 0 0 0
251 39.79710 41.90057 29.83350 0 0 0
252 40.31216 42.66565 30.21996 0 0 0
253 40.82722 42.71351 31.07578 0 0 0
254 30.79086 36.26718 19.27405 0 0 0
255 30.02559 36.90989 19.30974 0 0 0
256 29.26031 37.26215 18.77099 0 0 0
257 28.49503 37.90486 18.80668 0 0 0
258 27.72975 38.25713 18.26792 0 0 0
259 26.96447 38.89984 18.30361 0 0 0
260 26.19920 39.25210 17.76486 0 0 0
261 25.43392 39.89481 17.80055 0 0 0
262 24.66864 40.24708 17.26179 0 0 0
263 23.90336 40.88979 17.29748 0 0 0
264 23.13809 41.24205 16.75873 0 0 0
265 22.37281 41.88476 16.79442 0 0 0
266 21.60753 42.23703 16.25566 0 0 0
267 20.84225 42.87974 16.29135 0 0 0
268 20.07698 43.23200 15.75259 0 0 0
269 19.31170 43.87471 15.78829 0 0 0
270 18.54642 44.22698 15.24953 0 0 0
271 17.78114 44.86969 15.28522 0 0 0
272 32.15619 35.51797 18.78386 0 0 0
273 32.75624 35.75695 18.02042 0 0 0
274 33.35629 35.21529 17.43175 0 0 0
275 33.95634 35.45427 16.66831 0 0 0
276 34.55639 34.91261 16.07964 0 0 0
277 35.15644 35.15158 15.31620 0 0 0
278 35.75649 34.60992 14.72753 0 0 0
279 36.35654 34.84890 13.96409 0 0 0
280 36.95659 34.30724 13.37542 0 0 0
281 37.55664 34.54622 12.61198 0 0 0
282 38.15669 34.00455 12.02331 0 0 0
283 38.75674 34.24353 11.25987 0 0 0
284 39.35679 33.70187 10.67120 0 0 0
285 39.95684 33.94085 9.90776 0 0 0
286 40.55689 33.39919 9.31908 0 0 0
287 41.15694 33.63817 8.55565 0 0 0
288 41.75699 33.09650 7.96697 0 0 0
289 42.35705 33.33548 7.20354 0 0 0
290 41.90494 34.01257 6.62290 0 0 0
291 41.45283 34.88927 6.45859 0 0 0
292 41.00073 35.18533 5.61719 0 0 0
293 40.54862 36.06203 5.45289 0 0 0
294 40.09652 36.35809 4.61149 0 0 0
295 39.64441 37.23479 4.44718 0 0 0
296 39.19231 37.53084 3.60578 0 0 0
297 38.74020 38.40755 3.44148 0 0 0
298 38.28810 38.70360 2.60008 0 0 0
299 37.83599 39.58030 2.43577 0 0 0
300 37.38388 39.87636 1.59437 0 0 0
301 36.93178 40.75306 1.43007 0 0 0
302 36.47967 41.04912 0.58867 0 0 0
303 36.02757 41.92582 0.42436 0 0 0
304 35.57546 42.22187 -0.41704 0 0 0
305 35.12336 43.09857 -0.58134 0 0 0
306 34.67125 43.39463 -1.42274 0 0 0
307 34.21915 44.27133 -1.58705 0 0 0
308 42.55606 32.51595 6.66618 0 0 0
309 42.75507 32.07489 5.79105 0 0 0
310 42.95409 31.09647 5.73544 0 0 0
311 43.15310 30.65542 4.86031 0 0 0
312 43.35212 29.67700 4.80471 0 0 0
313 43.55113 29.23594 3.92957 0 0 0
314 43.75015 28.25752 3.87397 0 0 0
315 43.94916 27.81647 2.99883 0 0 0
316 44.14818 26.83805 2.94323 0 0 0
317 44.34719 26.39699 2.06810 0 0 0
318 44.54621 25.41858 2.01249 0 0 0
319 44.74522 24.97752 1.13736 0 0 0
320 44.94424 23.99910 1.08176 0 0 0
321 45.14325 23.55805 0.20662 0 0 0
322 45.34227 22.57963 0.15102 0 0 0
323 45.54128 22.13857 -0.72412 0 0 0
324 45.74029 21.16015 -0.77972 0 0 0
325 45.93931 20.71910 -1.65485 0 0 0
326 43.21104 33.71724 7.55703 0 0 0
327 44.06503 33.87111 8.05404 0 0 0
328 44.91903 34.37847 8.16929 0 0 0
329 45.77302 34.53234 8.66630 0 0 0
330 46.62701 35.03970 8.78155 0 0 0
331 47.48101 35.19357 9.27856 0 0 0
332 48.33500 35.70093 9.39381 0 0 0
333 49.18899 35.85480 9.89082 0 0 0
334 50.04299 36.36216 10.00607 0 0 0
335 50.89698 36.51602 10.50308 0 0 0
336 51.75097 37.02338 10.61833 0 0 0
337 52.60497 37.17725 11.11534 0 0 0
338 53.45896 37.68461 11.23059 0 0 0
339 54.31295 37.83848 11.72760 0 0 0
340 55.16695 38.34584 11.84285 0 0 0
341 56.02094 38.49971 12.33986 0 0 0
342 56.87493 39.00707 12.45511 0 0 0
343 57.72893 39.16094 12.95212 0 0 0
344 57.72125 40.07687 13.35337 0 0 0
345 57.71358 40.66947 14.15884 0 0 0
346 57.70590 41.66332 14.04836 0 0 0
347 57.69823 42.25592 14.85382 0 0 0
348 57.69056 43.24977 14.74335 0 0 0
349 57.68288 43.84237 15.54881 0 0 0
350 57.67521 44.83622 15.43833 0 0 0
351 57.66753 45.42882 16.24379 0 0 0
352 57.65986 46.42267 16.13332 0 0 0
353 57.65219 47.01527 16.93878 0 0 0
354 57.64451 48.00911 16.82830 0 0 0
355 57.63684 48.60171 17.63377 0 0 0
356 57.62916 49.59556 17.52329 0 0 0
357 57.62149 50.18816 18.32875 0 0 0
358 57.61381 51.18201 18.21828 0 0 0
359 57.60614 51.77461 19.02374 0 0 0
360 57.59847 52.76846 18.91326 0 0 0
361 57.59079 53.36106 19.71872 0 0 0
362 58.50114 39.08007 12.32193 0 0 0
363 59.27335 39.32514 11.73573 0 0 0
364 60.04556 38.94001 11.23039 0 0 0
365 60.81778 39.18508 10.64419 0 0 0
366 61.58999 38.79995 10.13886 0 0 0
367 62.36220 39.04502 9.55266 0 0 0
368 63.13441 38.65989 9.04732 0 0 0
369 63.90663 38.90496 8.46112 0 0 0
370 64.67884 38.51983 7.95579 0 0 0
371 65.45105 38.76490 7.36959 0 0 0
372 66.22326 38.37977 6.86425 0 0 0
373 66.99547 38.62484 6.27805 0 0 0
374 67.76769 38.23971 5.77272 0 0 0
375 68.53990 38.48478 5.18652 0 0 0
376 69.31211 38.09965 4.68118 0 0 0
377 70.08432 38.34472 4.09498 0 0 0
378 70.85654 37.95959 3.58965 0 0 0
379 71.62875 38.20466 3.00345 0 0 0
380 57.81960 38.47995 13.67879 0 0 0
381 57.91026 37.52687 13.96760 0 0 0
382 58.00093 37.30046 14.93741 0 0 0
383 58.09160 36.34737 15.22622 0 0 0
384 58.18227 36.12096 16.19602 0 0 0
385 58.27294 35.16788 16.48484 0 0 0
386 58.36361 34.94146 17.45464 0 0 0
387 58.45428 33.98838 17.74346 0 0 0
388 58.54494 33.76196 18.71326 0 0 0
389 58.63561 32.80888 19.00208 0 0 0
390 58.72628 32.58246 19.97188 0 0 0
391 58.81695 31.62938 20.26070 0 0 0
392 58.90762 31.40296 21.23050 0 0 0
393 58.99829 30.44988 21.51932 0 0 0
394 59.08896 30.22346 22.48912 0 0 0
395 59.17963 29.27038 22.77793 0 0 0
396 59.27029 29.04396 23.74773 0 0 0
397 59.36096 28.09088 24.03655 0 0 0
ITEM: TIMESTEP
1000
ITEM: NUMBER OF ATOMS
397
ITEM: BOX BOUNDS pp pp pp
-1.0000000000000000e+03 1.0000000000000000e+03
-1.0000000000000000e+03 1.0000000000000000e+03
-1.0000000000000000e+03 1.0000000000000000e+03
ITEM: ATOMS id x y z ix iy iz
1 0.06847 0.03889 2.55316 0 0 0
2 -0.42520 -0.31420 3.30619 0 0 0
3 -1.02813 -1.08750 3.30108 0 0 0
4 -0.43543 -1.03928 4.09454 0 0 0
5 -0.86319 -1.20272 4.96841 0 0 0
6 -1.21722 -1.33285 5.82501 0 0 0
7 -0.62826 -1.24351 6.60576 0 0 0
8 -0.54416 -1.53612 7.51469 0 0 0
9 -0.46758 -1.09192 8.32144 0 0 0
10 -0.51116 -0.37702 9.08883 0 0 0
11 -1.09358 -0.12822 9.79246 0 0 0
12 -1.17300 -0.17824 10.77848 0 0 0
13 -0.44903 -0.43952 11.43441 0 0 0
14 0.17355 -0.66809 12.15176 0 0 0
15 -0.14790 -0.48013 13.01390 0 0 0
16 -0.37916 -0.88291 13.86754 0 0 0
17 -0.33344 -0.65795 14.85759 0 0 0
18 -0.92135 -0.79120 15.64664 0 0 0
19 -0.81338 -0.84540 16.65917 0 0 0
20 -0.30496 -1.72277 16.69503 0 0 0
21 0.13451 -2.53371 16.45160 0 0 0
22 0.64979 -2.85428 15.67947 0 0 0
23 0.97497 -2.81626 14.81667 0 0 0
24 1.73818 -2.97749 15.38146 0 0 0
25 1.42010 -3.83619 15.59017 0 0 0
26 1.62701 -3.85077 16.67635 0 0 0
27 2.36431 -4.49135 16.99169 0 0 0
28 3.05690 -5.11524 17.21671 0 0 0
29 3.96652 -5.48547 17.10478 0 0 0
30 4.00958 -6.34610 16.55077 0 0 0
31 4.39013 -7.22216 16.78725 0 0 0
32 5.13389 -7.69444 17.21481 0 0 0
33 5.76762 -8.41763 16.86081 0 0 0
34 6.04590 -8.95635 16.03551 0 0 0
35 6.59727 -9.52658 15.48602 0 0 0
36 7.19627 -9.81642 14.61472 0 0 0
37 7.07626 -10.06891 13.70217 0 0 0
38 -1.65636 -1.35472 16.41762 0 0 0
39 -2.20929 -1.64378 15.70875 0 0 0
40 -2.94971 -2.09653 15.34461 0 0 0
41 -3.46420 -2.15366 16.24965 0 0 0
42 -3.65096 -3.16979 16.42073 0 0 0
43 -4.46126 -3.64141 16.75687 0 0 0
44 -5.00637 -3.67607 17.52781 0 0 0
45 -5.61968 -3.54183 16.71066 0 0 0
46 -6.29487 -3.75616 16.02739 0 0 0
47 -7.25430 -4.00198 16.20179 0 0 0
48 -7.50824 -4.78496 16.82496 0 0 0
49 -8.27792 -4.28066 17.13631 0 0 0
50 -8.95554 -3.88502 16.52980 0 0 0
51 -9.97446 -3.80077 16.44822 0 0 0
52 -10.54232 -4.59314 16.47625 0 0 0
53 -11.47386 -4.72961 16.66773 0 0 0
54 -12.28126 -4.40831 16.17367 0 0 0
55 -12.12449 -3.44968 16.09241 0 0 0
56 -1.04679 -0.16194 17.33721 0 0 0
57 -0.35937 0.50889 17.70539 0 0 0
58 -0.15191 1.42769 17.91280 0 0 0
59 0.49326 2.09109 18.12041 0 0 0
60 1.06805 2.35831 19.01625 0 0 0
61 1.07287 3.22414 19.47294 0 0 0
62 1.13950 3.26759 20.44706 0 0 0
63 2.06710 3.18025 20.52966 0 0 0
64 2.74433 3.84162 20.60978 0 0 0
65 2.73539 4.31002 21.59518 0 0 0
66 2.19876 4.90937 22.14448 0 0 0
67 2.58145 5.17075 23.10471 0 0 0
68 3.10825 5.75301 23.65824 0 0 0
69 3.33408 6.39248 24.30624 0 0 0
70 3.52838 6.99896 24.98037 0 0 0
71 3.80411 7.45910 25.87847 0 0 0
72 3.41856 8.14931 26.45534 0 0 0
73 3.62531 8.75681 27.23524 0 0 0
74 4.56599 8.59479 27.37602 0 0 0
75 5.47966 8.80893 27.19301 0 0 0
76 6.32731 9.11604 27.68921 0 0 0
77 6.55656 8.97018 28.62313 0 0 0
78 6.65289 8.11801 29.08450 0 0 0
79 7.04006 7.18780 28.96744 0 0 0
80 7.46135 6.52605 29.58154 0 0 0
81 8.09621 5.77324 29.37419 0 0 0
82 8.98073 5.45207 29.81384 0 0 0
83 9.82977 4.95581 30.18608 0 0 0
84 10.63112 5.12499 30.79413 0 0 0
85 11.39666 4.83759 30.34418 0 0 0
86 12.21219 4.76361 31.00627 0 0 0
87 13.09514 4.59646 30.61722 0 0 0
88 13.57993 3.79658 30.76249 0 0 0
89 14.09018 3.01361 31.03744 0 0 0
90 15.03621 2.65799 31.29559 0 0 0
91 15.49139 2.26379 30.57169 0 0 0
92 2.96923 8.68596 27.93872 0 0 0
93 2.11766 8.29962 28.09535 0 0 0
94 1.96325 7.39449 28.45263 0 0 0
95 1.55068 6.61289 28.94375 0 0 0
96 0.85369 6.04741 29.21205 0 0 0
97 0.80460 5.35797 29.86627 0 0 0
98 0.95194 5.64636 30.76060 0 0 0
99 0.20896 6.30941 30.87584 0 0 0
100 -0.71566 6.19622 31.41589 0 0 0
101 -1.49446 5.96558 31.94629 0 0 0
102 -2.17508 5.94104 32.66743 0 0 0
103 -3.15337 5.76236 32.64662 0 0 0
104 -3.98581 5.51782 33.19967 0 0 0
105 -4.58624 5.97487 33.80006 0 0 0
106 -5.40877 6.35522 33.52564 0 0 0
107 -5.81415 7.19914 33.76454 0 0 0
108 -6.19469 8.13111 33.82940 0 0 0
109 -5.87352 8.63544 34.59125 0 0 0
110 3.99522 9.40744 27.82322 0 0 0
111 4.43398 10.16474 28.30823 0 0 0
112 4.73104 10.66001 29.14181 0 0 0
113 4.60741 11.63817 29.26545 0 0 0
114 5.14391 12.34847 29.63554 0 0 0
115 5.27954 13.27209 29.42129 0 0 0
116 5.99914 14.09354 29.48174 0 0 0
117 6.19542 15.07742 29.81593 0 0 0
118 6.34799 15.95069 30.26611 0 0 0
119 7.07003 16.48616 29.91961 0 0 0
120 7.30022 17.43159 29.91633 0 0 0
121 7.56787 18.28955 30.28146 0 0 0
122 7.79370 19.19720 30.59202 0 0 0
123 7.94742 20.03929 29.98879 0 0 0
124 7.94058 20.96633 29.68177 0 0 0
125 8.27887 21.93740 29.81523 0 0 0
126 8.45135 22.77694 30.28995 0 0 0
127 9.25658 23.23472 30.76912 0 0 0
128 8.63356 22.80021 31.45782 0 0 0
129 8.17822 22.55044 32.24301 0 0 0
130 7.36662 22.52331 32.80406 0 0 0
131 6.56185 22.76899 33.39430 0 0 0
132 6.08756 23.33895 33.97209 0 0 0
133 5.90605 22.84414 34.76415 0 0 0
134 5.68041 23.10611 35.69243 0 0 0
135 5.12105 23.72709 36.21348 0 0 0
136 5.55481 23.33482 37.04362 0 0 0
137 4.84810 23.80807 37.40416 0 0 0
138 3.87271 23.86333 37.25967 0 0 0
139 3.54801 24.18231 38.07075 0 0 0
140 3.07282 25.11705 38.03360 0 0 0
141 3.19193 25.92748 38.71609 0 0 0
142 2.26944 26.03821 38.85220 0 0 0
143 1.49247 25.99145 39.39766 0 0 0
144 0.59647 25.55657 39.27540 0 0 0
145 0.75208 24.89663 38.62709 0 0 0
146 8.98856 23.93636 31.41350 0 0 0
147 8.09205 24.47742 31.47808 0 0 0
148 7.27202 24.98981 31.46431 0 0 0
149 6.83454 25.76125 31.01881 0 0 0
150 6.24517 26.63074 31.23741 0 0 0
151 5.50060 27.24650 31.38981 0 0 0
152 5.82777 27.89035 30.74027 0 0 0
153 5.16364 28.46426 30.13734 0 0 0
154 4.50508 29.21289 30.15481 0 0 0
155 4.46565 30.14860 29.97243 0 0 0
156 4.22231 31.09501 30.26252 0 0 0
157 3.48536 31.60418 30.58683 0 0 0
158 2.68073 31.59511 30.09405 0 0 0
159 2.46001 31.49417 29.15051 0 0 0
160 2.27305 30.78431 28.50959 0 0 0
161 1.33133 30.88260 28.20887 0 0 0
162 1.18646 31.87709 28.06717 0 0 0
163 0.63984 31.69755 27.21948 0 0 0
164 10.17460 23.30293 30.48583 0 0 0
165 11.14311 23.50383 30.61574 0 0 0
166 12.13274 23.47000 30.61836 0 0 0
167 13.09721 23.79969 30.43152 0 0 0
168 13.92810 24.20441 30.58833 0 0 0
169 14.88329 24.65912 30.62051 0 0 0
170 15.78814 24.76424 30.66638 0 0 0
171 16.70502 24.46302 30.49641 0 0 0
172 17.41671 25.05825 30.82492 0 0 0
173 18.25773 25.34961 31.23574 0 0 0
174 19.22800 25.20086 31.43586 0 0 0
175 20.11535 25.59441 31.59161 0 0 0
176 20.98095 25.94896 31.74867 0 0 0
177 21.81229 25.57174 31.32882 0 0 0
178 22.62586 26.18813 31.19931 0 0 0
179 23.03673 27.10586 30.97983 0 0 0
180 24.06181 27.00596 31.09982 0 0 0
181 24.62825 26.67511 30.16061 0 0 0
182 24.10786 26.03866 29.63632 0 0 0
183 24.86683 25.55776 30.10431 0 0 0
184 25.52768 24.85078 30.19445 0 0 0
185 25.70812 23.82793 29.84298 0 0 0
186 26.11445 23.05276 30.23903 0 0 0
187 26.24312 22.12174 29.88051 0 0 0
188 26.78025 21.34059 30.22870 0 0 0
189 27.53612 20.66563 30.17515 0 0 0
190 27.85729 20.22554 29.37065 0 0 0
191 27.61558 19.38223 28.98949 0 0 0
192 27.92514 18.64949 29.58373 0 0 0
193 28.59255 17.97722 29.72713 0 0 0
194 29.25352 17.38023 30.11887 0 0 0
195 29.69470 16.59456 30.40082 0 0 0
196 29.01392 15.82157 30.21079 0 0 0
197 28.80078 14.86513 30.35924 0 0 0
198 28.55332 14.59114 31.25532 0 0 0
199 28.37028 14.37453 32.18153 0 0 0
200 25.01865 27.26893 30.79708 0 0 0
201 24.88795 27.82031 31.57947 0 0 0
202 25.19674 28.63059 32.11520 0 0 0
203 25.67399 28.93209 32.94900 0 0 0
204 26.10054 28.65779 33.79316 0 0 0
205 25.26134 29.02911 34.17831 0 0 0
206 24.42296 29.09077 34.82641 0 0 0
207 25.20532 29.20902 35.40854 0 0 0
208 25.37345 29.95260 36.02958 0 0 0
209 24.97548 30.00831 36.92987 0 0 0
210 25.49135 30.51852 37.49899 0 0 0
211 26.44365 30.58782 37.77528 0 0 0
212 27.40655 30.78283 38.25784 0 0 0
213 27.95819 30.45523 38.98948 0 0 0
214 27.29551 31.00453 39.48306 0 0 0
215 28.18113 30.92710 39.94819 0 0 0
216 28.75298 31.23458 40.73118 0 0 0
217 28.70141 31.05119 41.75689 0 0 0
218 25.28500 27.14262 29.47436 0 0 0
219 25.61539 27.96582 29.17346 0 0 0
220 25.80184 28.34162 28.28718 0 0 0
221 26.03224 28.55231 27.28270 0 0 0
222 25.82571 28.80403 26.39365 0 0 0
223 26.31643 29.44596 25.75478 0 0 0
224 26.58691 29.76044 24.84971 0 0 0
225 27.24846 30.27751 24.41156 0 0 0
226 27.29192 31.10865 23.85571 0 0 0
227 28.17041 31.50633 23.50587 0 0 0
228 28.39088 32.33936 22.98135 0 0 0
229 29.22833 32.58257 22.59949 0 0 0
230 29.44332 33.14892 21.81642 0 0 0
231 30.10924 33.69008 21.46831 0 0 0
232 30.34317 34.58525 21.43005 0 0 0
233 30.97161 34.68853 20.73786 0 0 0
234 31.65864 35.31936 20.43692 0 0 0
235 31.78732 36.19824 19.89906 0 0 0
236 32.60404 36.11638 20.37054 0 0 0
237 32.27545 36.31984 21.24405 0 0 0
238 32.83927 36.10478 22.04674 0 0 0
239 32.58673 35.76745 22.94593 0 0 0
240 32.96284 35.59266 23.81454 0 0 0
241 33.62874 35.27520 24.43169 0 0 0
242 34.16635 35.86818 23.91239 0 0 0
243 35.01182 36.39768 23.87480 0 0 0
244 35.98119 36.57027 24.05164 0 0 0
245 36.59203 36.98619 24.63423 0 0 0
246 36.72139 37.88781 24.98357 0 0 0
247 37.14098 38.69458 24.54246 0 0 0
248 37.91794 39.36219 24.44814 0 0 0
249 38.20295 40.15885 24.90600 0 0 0
250 37.98584 40.97923 25.32086 0 0 0
251 38.00461 41.46950 26.17805 0 0 0
252 37.92548 41.17260 27.04921 0 0 0
253 38.20534 41.64829 27.87103 0 0 0
254 30.88535 36.41640 19.95084 0 0 0
255 30.89414 37.23068 19.38076 0 0 0
256 30.20833 37.22554 18.70079 0 0 0
257 30.07398 36.55705 18.02182 0 0 0
258 29.48680 37.23066 17.61587 0 0 0
259 28.93581 37.81600 17.08087 0 0 0
260 28.22727 38.43516 17.09720 0 0 0
261 27.47485 38.87846 17.65882 0 0 0
262 26.73801 39.59217 17.42038 0 0 0
263 25.75498 39.81676 17.62544 0 0 0
264 25.23669 40.62115 17.65036 0 0 0
265 24.37616 41.09897 17.53399 0 0 0
266 23.74549 41.68396 17.10595 0 0 0
267 23.48558 42.61134 17.01876 0 0 0
268 23.00015 43.33181 17.40952 0 0 0
269 22.36712 43.27317 18.25257 0 0 0
270 21.84351 43.33241 19.07906 0 0 0
271 21.18921 43.40855 19.81511 0 0 0
272 32.37983 35.86469 19.21876 0 0 0
273 32.99272 35.39607 18.65010 0 0 0
274 33.86631 35.18256 18.05760 0 0 0
275 34.59049 35.61415 17.44344 0 0 0
276 35.09233 35.67367 16.59375 0 0 0
277 35.34445 35.28675 15.71424 0 0 0
278 36.21102 34.98302 15.31688 0 0 0
279 37.05439 35.10602 14.70223 0 0 0
280 37.74982 35.42794 14.01268 0 0 0
281 38.32301 34.69090 13.64973 0 0 0
282 39.12243 34.29626 13.01339 0 0 0
283 39.94721 34.29165 12.49985 0 0 0
284 40.71599 34.67810 12.06543 0 0 0
285 41.66059 35.05933 11.88572 0 0 0
286 41.85042 35.57205 11.07152 0 0 0
287 42.57682 35.88245 10.52955 0 0 0
288 42.82952 35.22107 9.77087 0 0 0
289 42.72106 34.45509 9.05171 0 0 0
290 41.81050 34.29232 8.59444 0 0 0
291 41.16819 34.99896 8.55050 0 0 0
292 41.10355 35.19559 7.56881 0 0 0
293 40.80359 36.02237 7.19436 0 0 0
294 40.27396 36.77780 6.77347 0 0 0
295 40.17776 37.31538 5.84908 0 0 0
296 39.41340 37.47318 5.16466 0 0 0
297 38.65829 37.88156 4.68693 0 0 0
298 37.92225 38.06685 3.99051 0 0 0
299 37.54812 38.18434 3.10608 0 0 0
300 37.40102 39.17693 3.11905 0 0 0
301 36.69562 39.77229 2.77261 0 0 0
302 36.57826 40.19976 1.87139 0 0 0
303 36.12404 41.02511 1.75574 0 0 0
304 36.85822 41.56260 1.56161 0 0 0
305 37.87995 41.77982 1.27002 0 0 0
306 37.84070 41.26537 0.37751 0 0 0
307 37.81475 40.97968 -0.52822 0 0 0
308 42.46405 33.50460 9.04626 0 0 0
309 43.11271 32.99501 8.57139 0 0 0
310 43.72291 32.31086 8.49724 0 0 0
311 43.93262 31.64824 7.61525 0 0 0
312 43.81213 31.16331 6.79500 0 0 0
313 44.49284 30.52182 6.62260 0 0 0
314 44.09253 29.97365 5.95965 0 0 0
315 44.30429 29.11442 5.49915 0 0 0
316 43.89189 28.53113 4.69133 0 0 0
317 43.19218 27.86702 4.40130 0 0 0
318 43.12095 26.91376 4.03105 0 0 0
319 43.53940 25.94532 3.88189 0 0 0
320 44.42359 25.35095 3.88872 0 0 0
321 44.90899 24.52330 3.69024 0 0 0
322 44.60597 23.63841 3.38407 0 0 0
323 44.27760 23.05397 2.68511 0 0 0
324 43.63608 22.39795 2.35127 0 0 0
325 43.74619 21.34498 2.31289 0 0 0
326 43.63629 34.45870 9.33582 0 0 0
327 44.49362 34.00311 9.33338 0 0 0
328 45.38449 34.29620 9.62278 0 0 0
329 45.89706 34.74852 10.30855 0 0 0
330 45.98419 35.75119 10.53512 0 0 0
331 46.88005 35.79523 10.27320 0 0 0
332 47.70371 36.31974 10.29449 0 0 0
333 48.47283 36.95907 10.02093 0 0 0
334 49.22221 37.56986 10.05358 0 0 0
335 50.10991 37.82296 10.31029 0 0 0
336 50.89443 38.35209 10.43354 0 0 0
337 51.55484 37.77813 10.83420 0 0 0
338 52.53495 37.88721 10.85677 0 0 0
339 53.42801 38.09532 11.18867 0 0 0
340 54.35364 37.84656 11.18174 0 0 0
341 55.23610 38.33437 11.16459 0 0 0
342 56.02730 38.91074 11.54142 0 0 0
343 56.84664 39.44044 11.90547 0 0 0
344 56.18986 39.55107 12.68074 0 0 0
345 56.96327 39.56731 13.26447 0 0 0
346 56.88088 40.24278 13.98937 0 0 0
347 57.33692 40.73380 14.75391 0 0 0
348 57.55579 41.59730 15.19360 0 0 0
349 57.34736 42.56906 15.29052 0 0 0
350 57.22156 43.48222 15.11055 0 0 0
351 57.24755 44.43940 15.10315 0 0 0
352 57.83795 45.08697 15.70846 0 0 0
353 58.14968 46.01060 15.70918 0 0 0
354 58.88083 46.33934 16.29577 0 0 0
355 58.91058 47.28319 16.69239 0 0 0
356 59.07812 48.18245 17.11170 0 0 0
357 58.49477 48.96088 17.15907 0 0 0
358 59.28574 49.23499 17.65201 0 0 0
359 58.94053 49.57270 18.53559 0 0 0
360 58.72889 49.66875 19.49360 0 0 0
361 58.08660 49.29216 20.11823 0 0 0
362 57.41363 38.93855 11.23027 0 0 0
363 58.15641 38.73925 10.61894 0 0 0
364 58.89807 38.21574 10.24112 0 0 0
365 59.70831 38.02349 10.75460 0 0 0
366 60.46943 38.30620 10.33171 0 0 0
367 61.25544 38.64285 9.87292 0 0 0
368 62.03063 38.05364 9.80086 0 0 0
369 61.84609 38.24665 8.80051 0 0 0
370 62.06390 38.97070 7.96557 0 0 0
371 62.92512 38.77798 7.68645 0 0 0
372 63.85400 38.59950 7.52202 0 0 0
373 64.62324 38.41182 7.00835 0 0 0
374 65.10699 38.96708 6.25981 0 0 0
375 66.09205 39.03593 6.39194 0 0 0
376 67.01284 38.89826 6.49362 0 0 0
377 67.75047 39.27903 5.94939 0 0 0
378 68.01887 38.45386 5.51225 0 0 0
379 69.05274 38.29326 5.35457 0 0 0
380 57.74335 39.29622 12.21501 0 0 0
381 57.73666 38.60262 12.93780 0 0 0
382 58.30604 38.02519 13.46916 0 0 0
383 58.38016 38.65266 14.16430 0 0 0
384 57.85105 38.49857 15.02145 0 0 0
385 57.86168 38.28088 15.94466 0 0 0
386 57.90264 37.63752 16.62292 0 0 0
387 58.04326 37.38969 17.55772 0 0 0
388 58.48446 36.57257 17.94917 0 0 0
389 58.46946 35.60789 18.09686 0 0 0
390 58.70500 34.92551 18.67004 0 0 0
391 58.63086 34.05741 18.39475 0 0 0
392 58.21733 33.44102 19.01214 0 0 0
393 57.92515 32.50049 19.01950 0 0 0
394 57.15201 31.93761 19.26800 0 0 0
395 57.48149 31.04081 19.37197 0 0 0
396 57.67825 30.29923 18.72692 0 0 0
397 57.90678 29.71323 17.99026 0 0 0
ITEM: TIMESTEP
2000
ITEM: NUMBER OF ATOMS
397
ITEM: BOX BOUNDS pp pp pp
-1.0000000000000000e+03 1.0000000000000000e+03
-1.0000000000000000e+03 1.0000000000000000e+03
-1.0000000000000000e+03 1.0000000000000000e+03
ITEM: ATOMS id x y z ix iy iz
1 0.26505 -1.94203 3.74042 0 0 0
2 0.48800 -1.27486 4.57666 0 0 0
3 1.40718 -1.23947 4.75506 0 0 0
4 2.29708 -1.26398 5.13734 0 0 0
5 1.64959 -1.42403 5.94409 0 0 0
6 1.06704 -1.22378 6.64053 0 0 0
7 0.72199 -1.17261 7.51669 0 0 0
8 0.04788 -1.29777 8.21910 0 0 0
9 -0.57424 -1.17856 9.02331 0 0 0
10 -0.69142 -0.27076 9.16045 0 0 0
11 0.00077 -0.25737 9.77098 0 0 0
12 0.58266 -0.26683 10.60905 0 0 0
13 0.56614 -0.56257 11.53237 0 0 0
14 0.13289 -0.14963 12.31753 0 0 0
15 0.21347 0.08845 13.33721 0 0 0
16 0.61870 0.55808 14.07312 0 0 0