bb150nuc5bl25bn4d30tot400V2

401 atoms
400 bonds
414 angles

1 atom types
1 bond types
1 angle types

-1000 1000 xlo xhi
-1000 1000 ylo yhi
-1000 1000 zlo zhi

Masses

1 1

Atoms

1	1	1	0.0	0.0	0.0	0	0	0
2	1	1	0.0	0.0	1.0	0	0	0
3	1	1	0.0	-0.49999999999999994	1.8660254037844388	0	0	0
4	1	1	0.0	0.0	2.7320508075688776	0	0	0
5	1	1	0.0	-0.49999999999999994	3.5980762113533165	0	0	0
6	1	1	0.0	0.0	4.464101615137755	0	0	0
7	1	1	0.0	-0.49999999999999994	5.330127018922194	0	0	0
8	1	1	0.0	0.0	6.196152422706632	0	0	0
9	1	1	0.0	-0.49999999999999994	7.06217782649107	0	0	0
10	1	1	0.0	0.0	7.928203230275509	0	0	0
11	1	1	0.0	-0.49999999999999994	8.794228634059948	0	0	0
12	1	1	0.0	0.0	9.660254037844387	0	0	0
13	1	1	0.0	-0.49999999999999994	10.526279441628827	0	0	0
14	1	1	0.0	0.0	11.392304845413266	0	0	0
15	1	1	0.0	-0.49999999999999994	12.258330249197705	0	0	0
16	1	1	0.0	0.0	13.124355652982144	0	0	0
17	1	1	0.0	-0.49999999999999994	13.990381056766584	0	0	0
18	1	1	0.0	0.0	14.856406460551023	0	0	0
19	1	1	0.0	-0.49999999999999994	15.722431864335462	0	0	0
20	1	1	0.0	0.0	16.5884572681199	0	0	0
21	1	1	0.0	-0.49999999999999994	17.454482671904337	0	0	0
22	1	1	0.0	0.0	18.320508075688775	0	0	0
23	1	1	0.0	-0.49999999999999994	19.186533479473212	0	0	0
24	1	1	0.0	0.0	20.05255888325765	0	0	0
25	1	1	0.0	-0.49999999999999994	20.918584287042087	0	0	0
26	1	1	0.0	0.0	21.784609690826525	0	0	0
27	1	1	0.08260397224166927	-0.6463075967310024	22.543202515850393	0	0	0
28	1	1	0.16520794448333861	-1.5853228066708533	22.877009375084164	0	0	0
29	1	1	0.24781191672500796	-1.7657451915868365	23.857123831048938	0	0	0
30	1	1	0.3304158889666773	-2.7047604015266873	24.19093069028271	0	0	0
31	1	1	0.41301986120834666	-2.8851827864426705	25.171045146247483	0	0	0
32	1	1	0.49562383345001604	-3.8241979963825212	25.504852005481254	0	0	0
33	1	1	0.5782278056916854	-4.004620381298505	26.484966461446028	0	0	0
34	1	1	0.6608317779333548	-4.943635591238356	26.8187733206798	0	0	0
35	1	1	0.7434357501750242	-5.124057976154339	27.798887776644573	0	0	0
36	1	1	0.8260397224166935	-6.06307318609419	28.132694635878345	0	0	0
37	1	1	0.9086436946583629	-6.243495571010174	29.11280909184312	0	0	0
38	1	1	0.9912476669000323	-7.182510780950024	29.44661595107689	0	0	0
39	1	1	1.0738516391417017	-7.362933165866008	30.426730407041664	0	0	0
40	1	1	1.156455611383371	-8.301948375805859	30.760537266275435	0	0	0
41	1	1	1.2390595836250404	-8.482370760721842	31.74065172224021	0	0	0
42	1	1	1.3216635558667098	-9.421385970661694	32.07445858147398	0	0	0
43	1	1	1.4042675281083792	-9.601808355577678	33.05457303743876	0	0	0
44	1	1	1.4868715003500486	-10.54082356551753	33.38837989667253	0	0	0
45	1	1	1.569475472591718	-10.721245950433513	34.368494352637306	0	0	0
46	1	1	1.6520794448333873	-11.660261160373365	34.70230121187108	0	0	0
47	1	1	1.7346834170750567	-11.840683545289348	35.682415667835855	0	0	0
48	1	1	1.817287389316726	-12.7796987552292	36.01622252706963	0	0	0
49	1	1	1.8998913615583954	-12.960121140145183	36.9963369830344	0	0	0
50	1	1	1.9824953338000648	-13.899136350085035	37.33014384226818	0	0	0
51	1	1	2.065099306041734	-14.079558735001019	38.31025829823295	0	0	0
52	1	1	-0.8545130124687238	0.5115559636095757	21.8747096776029	0	0	0
53	1	1	-1.7090260249374487	0.909526430164709	22.208516536836672	0	0	0
54	1	1	-2.5635390374061737	1.3975968834962176	22.030767432460866	0	0	0
55	1	1	-3.4180520498748983	1.795567350051351	22.364574291694638	0	0	0
56	1	1	-4.272565062343623	2.2836378033828595	22.18682518731883	0	0	0
57	1	1	-5.1270780748123475	2.6816082699379926	22.520632046552603	0	0	0
58	1	1	-5.981591087281072	3.169678723269501	22.342882942176796	0	0	0
59	1	1	-6.836104099749797	3.5676491898246345	22.676689801410568	0	0	0
60	1	1	-7.690617112218521	4.055719643156143	22.49894069703476	0	0	0
61	1	1	-8.545130124687246	4.453690109711276	22.832747556268533	0	0	0
62	1	1	-9.399643137155971	4.941760563042785	22.654998451892727	0	0	0
63	1	1	-10.254156149624697	5.339731029597918	22.988805311126498	0	0	0
64	1	1	-11.108669162093422	5.827801482929427	22.811056206750692	0	0	0
65	1	1	-11.963182174562148	6.22577194948456	23.144863065984463	0	0	0
66	1	1	-12.817695187030873	6.713842402816069	22.967113961608657	0	0	0
67	1	1	-13.672208199499599	7.111812869371202	23.30092082084243	0	0	0
68	1	1	-14.526721211968324	7.599883322702711	23.123171716466622	0	0	0
69	1	1	-15.38123422443705	7.997853789257844	23.456978575700393	0	0	0
70	1	1	-16.235747236905773	8.485924242589352	23.279229471324587	0	0	0
71	1	1	-17.0902602493745	8.883894709144485	23.61303633055836	0	0	0
72	1	1	-17.944773261843224	9.371965162475993	23.435287226182552	0	0	0
73	1	1	-18.79928627431195	9.769935629031126	23.769094085416324	0	0	0
74	1	1	-19.653799286780675	10.258006082362634	23.591344981040518	0	0	0
75	1	1	-20.5083122992494	10.655976548917767	23.92515184027429	0	0	0
76	1	1	-21.362825311718126	11.144047002249275	23.747402735898483	0	0	0
77	1	1	0.7719090402270508	0.6354619219720848	21.803172539188107	0	0	0
78	1	1	1.5438180804541024	1.176506665356805	22.13697939842188	0	0	0
79	1	1	2.315727120681154	1.7361142571031067	21.835324335683563	0	0	0
80	1	1	3.0876361609082057	2.277159000487827	22.169131194917334	0	0	0
81	1	1	3.8595452011352576	2.8367665922341283	21.867476132179018	0	0	0
82	1	1	4.631454241362309	3.3778113356188486	22.20128299141279	0	0	0
83	1	1	5.403363281589361	3.93741892736515	21.899627928674473	0	0	0
84	1	1	6.175272321816413	4.47846367074987	22.233434787908244	0	0	0
85	1	1	6.947181362043465	5.038071262496172	21.93177972516993	0	0	0
86	1	1	7.719090402270517	5.579116005880892	22.2655865844037	0	0	0
87	1	1	8.490999442497568	6.138723597627194	21.963931521665383	0	0	0
88	1	1	9.262908482724619	6.679768341011914	22.297738380899155	0	0	0
89	1	1	10.03481752295167	7.2393759327582154	21.99608331816084	0	0	0
90	1	1	10.80672656317872	7.780420676142936	22.32989017739461	0	0	0
91	1	1	11.578635603405772	8.340028267889238	22.028235114656294	0	0	0
92	1	1	12.350544643632823	8.881073011273958	22.362041973890065	0	0	0
93	1	1	13.122453683859874	9.44068060302026	22.06038691115175	0	0	0
94	1	1	13.894362724086925	9.98172534640498	22.39419377038552	0	0	0
95	1	1	14.666271764313976	10.541332938151282	22.092538707647204	0	0	0
96	1	1	15.438180804541027	11.082377681536002	22.426345566880975	0	0	0
97	1	1	16.210089844768078	11.641985273282303	22.12469050414266	0	0	0
98	1	1	16.98199888499513	12.183030016667024	22.45849736337643	0	0	0
99	1	1	17.75390792522218	12.742637608413325	22.156842300638115	0	0	0
100	1	1	18.52581696544923	13.283682351798046	22.490649159871886	0	0	0
101	1	1	19.29772600567628	13.843289943544347	22.18899409713357	0	0	0
102	1	1	19.436760298320877	14.595319054333507	22.83329347009189	0	0	0
103	1	1	19.575794590965472	14.924445682183181	23.767287650110756	0	0	0
104	1	1	19.714828883610068	15.897871682991175	23.949252719340464	0	0	0
105	1	1	19.853863176254663	16.22699831084085	24.88324689935933	0	0	0
106	1	1	19.99289746889926	17.200424311648845	25.06521196858904	0	0	0
107	1	1	20.131931761543854	17.52955093949852	25.999206148607907	0	0	0
108	1	1	20.27096605418845	18.502976940306514	26.181171217837615	0	0	0
109	1	1	20.410000346833044	18.83210356815619	27.115165397856483	0	0	0
110	1	1	20.54903463947764	19.805529568964182	27.29713046708619	0	0	0
111	1	1	20.688068932122235	20.134656196813857	28.23112464710506	0	0	0
112	1	1	20.82710322476683	21.10808219762185	28.413089716334767	0	0	0
113	1	1	20.966137517411426	21.437208825471526	29.347083896353634	0	0	0
114	1	1	21.10517181005602	22.41063482627952	29.529048965583343	0	0	0
115	1	1	21.244206102700616	22.739761454129194	30.46304314560221	0	0	0
116	1	1	21.38324039534521	23.713187454937188	30.64500821483192	0	0	0
117	1	1	21.522274687989807	24.042314082786863	31.579002394850786	0	0	0
118	1	1	21.661308980634402	25.015740083594856	31.760967464080494	0	0	0
119	1	1	21.800343273278997	25.34486671144453	32.694961644099365	0	0	0
120	1	1	21.939377565923593	26.318292712252525	32.87692671332908	0	0	0
121	1	1	22.078411858568188	26.6474193401022	33.81092089334795	0	0	0
122	1	1	22.217446151212783	27.620845340910193	33.99288596257766	0	0	0
123	1	1	22.35648044385738	27.94997196875987	34.92688014259653	0	0	0
124	1	1	22.495514736501974	28.923397969567862	35.10884521182624	0	0	0
125	1	1	22.63454902914657	29.252524597417537	36.04283939184511	0	0	0
126	1	1	22.773583321791165	30.22595059822553	36.224804461074825	0	0	0
127	1	1	19.106001226414158	14.214507633913138	21.280457342029987	0	0	0
128	1	1	18.914276447152034	14.99025996165849	20.679250277022796	0	0	0
129	1	1	18.72255166788991	14.857475534300256	19.706825521646813	0	0	0
130	1	1	18.530826888627786	15.633227862045608	19.105618456639622	0	0	0
131	1	1	18.339102109365662	15.500443434687375	18.133193701263643	0	0	0
132	1	1	18.147377330103538	16.276195762432724	17.531986636256452	0	0	0
133	1	1	17.955652550841414	16.143411335074493	16.559561880880473	0	0	0
134	1	1	17.76392777157929	16.919163662819845	15.958354815873284	0	0	0
135	1	1	17.572202992317166	16.786379235461613	14.985930060497303	0	0	0
136	1	1	17.380478213055042	17.562131563206965	14.384722995490113	0	0	0
137	1	1	17.188753433792918	17.429347135848733	13.412298240114133	0	0	0
138	1	1	16.997028654530794	18.205099463594085	12.811091175106943	0	0	0
139	1	1	16.80530387526867	18.072315036235853	11.838666419730963	0	0	0
140	1	1	16.613579096006546	18.848067363981205	11.237459354723773	0	0	0
141	1	1	16.421854316744422	18.715282936622973	10.265034599347793	0	0	0
142	1	1	16.2301295374823	19.491035264368325	9.663827534340603	0	0	0
143	1	1	16.038404758220175	19.358250837010093	8.691402778964623	0	0	0
144	1	1	15.846679978958049	20.134003164755445	8.090195713957433	0	0	0
145	1	1	15.654955199695923	20.001218737397213	7.117770958581453	0	0	0
146	1	1	15.463230420433797	20.776971065142565	6.516563893574263	0	0	0
147	1	1	15.271505641171672	20.644186637784333	5.5441391381982825	0	0	0
148	1	1	15.079780861909546	21.419938965529685	4.942932073191093	0	0	0
149	1	1	14.88805608264742	21.287154538171453	3.9705073178151125	0	0	0
150	1	1	14.696331303385294	22.062906865916805	3.369300252807923	0	0	0
151	1	1	14.504606524123169	21.930122438558573	2.3968754974319424	0	0	0
152	1	1	20.12342208929085	13.280445700199017	22.151147892084904	0	0	0
153	1	1	20.949118172905422	12.811931389612464	21.83694999540326	0	0	0
154	1	1	21.774814256519992	12.305570873977246	22.085596342066943	0	0	0
155	1	1	22.600510340134562	11.837056563390693	21.771398445385298	0	0	0
156	1	1	23.426206423749132	11.330696047755474	22.02004479204898	0	0	0
157	1	1	24.251902507363702	10.862181737168921	21.705846895367337	0	0	0
158	1	1	25.077598590978273	10.355821221533702	21.95449324203102	0	0	0
159	1	1	25.903294674592843	9.88730691094715	21.640295345349376	0	0	0
160	1	1	26.728990758207413	9.38094639531193	21.88894169201306	0	0	0
161	1	1	27.554686841821983	8.912432084725378	21.574743795331415	0	0	0
162	1	1	28.380382925436553	8.406071569090159	21.823390141995098	0	0	0
163	1	1	29.206079009051123	7.937557258503606	21.509192245313454	0	0	0
164	1	1	30.031775092665693	7.431196742868388	21.757838591977137	0	0	0
165	1	1	30.857471176280264	6.962682432281835	21.443640695295493	0	0	0
166	1	1	31.683167259894834	6.456321916646617	21.692287041959176	0	0	0
167	1	1	32.508863343509404	5.9878076060600645	21.37808914527753	0	0	0
168	1	1	33.33455942712397	5.4814470904248465	21.626735491941215	0	0	0
169	1	1	34.16025551073854	5.012932779838294	21.31253759525957	0	0	0
170	1	1	34.985951594353104	4.506572264203076	21.561183941923254	0	0	0
171	1	1	35.81164767796767	4.038057953616523	21.24698604524161	0	0	0
172	1	1	36.63734376158224	3.531697437981305	21.495632391905293	0	0	0
173	1	1	37.4630398451968	3.0631831273947525	21.181434495223648	0	0	0
174	1	1	38.28873592881137	2.556822611759534	21.43008084188733	0	0	0
175	1	1	39.11443201242594	2.0883083011729817	21.115882945205687	0	0	0
176	1	1	39.9401280960405	1.5819477855377635	21.36452929186937	0	0	0
177	1	1	40.7357231130329	2.1830782730259877	21.289225202013377	0	0	0
178	1	1	41.53131813002529	2.741324591108112	21.524575190933334	0	0	0
179	1	1	42.326913147017684	3.2242668193342423	21.158794692365063	0	0	0
180	1	1	43.12250816401008	3.7825131374163665	21.39414468128502	0	0	0
181	1	1	43.91810318100247	4.265455365642497	21.02836418271675	0	0	0
182	1	1	44.713698197994866	4.823701683724621	21.263714171636707	0	0	0
183	1	1	45.50929321498726	5.306643911950752	20.897933673068437	0	0	0
184	1	1	46.30488823197965	5.864890230032875	21.133283661988393	0	0	0
185	1	1	47.10048324897205	6.347832458259006	20.767503163420123	0	0	0
186	1	1	47.89607826596444	6.90607877634113	21.00285315234008	0	0	0
187	1	1	48.691673282956835	7.389021004567261	20.63707265377181	0	0	0
188	1	1	49.48726829994923	7.947267322649385	20.872422642691767	0	0	0
189	1	1	50.28286331694162	8.430209550875515	20.506642144123497	0	0	0
190	1	1	51.078458333934016	8.98845586895764	20.741992133043453	0	0	0
191	1	1	51.87405335092641	9.471398097183771	20.376211634475183	0	0	0
192	1	1	52.6696483679188	10.029644415265896	20.61156162339514	0	0	0
193	1	1	53.4652433849112	10.512586643492027	20.24578112482687	0	0	0
194	1	1	54.26083840190359	11.070832961574151	20.481131113746827	0	0	0
195	1	1	55.056433418895985	11.553775189800282	20.115350615178556	0	0	0
196	1	1	55.85202843588838	12.112021507882407	20.350700604098513	0	0	0
197	1	1	56.64762345288077	12.594963736108538	19.984920105530243	0	0	0
198	1	1	57.443218469873166	13.153210054190662	20.2202700944502	0	0	0
199	1	1	58.23881348686556	13.636152282416793	19.85448959588193	0	0	0
200	1	1	59.034408503857954	14.194398600498918	20.089839584801886	0	0	0
201	1	1	59.83000352085035	14.677340828725049	19.724059086233616	0	0	0
202	1	1	40.05218654612759	0.802675941875398	20.74794329021256	0	0	0
203	1	1	40.16424499621467	0.4360997296382583	19.824328227328703	0	0	0
204	1	1	40.27630344630175	-0.5470624842556944	19.679985008107213	0	0	0
205	1	1	40.38836189638884	-0.913638696492834	18.756369945223355	0	0	0
206	1	1	40.50042034647592	-1.8968009103867867	18.612026726001865	0	0	0
207	1	1	40.612478796563	-2.2633771226239263	17.688411663118007	0	0	0
208	1	1	40.72453724665009	-3.2465393365178787	17.544068443896517	0	0	0
209	1	1	40.83659569673717	-3.6131155487550184	16.62045338101266	0	0	0
210	1	1	40.94865414682425	-4.596277762648971	16.47611016179117	0	0	0
211	1	1	41.06071259691134	-4.962853974886111	15.552495098907311	0	0	0
212	1	1	41.17277104699842	-5.946016188780064	15.408151879685821	0	0	0
213	1	1	41.284829497085504	-6.312592401017204	14.484536816801963	0	0	0
214	1	1	41.39688794717259	-7.295754614911156	14.340193597580473	0	0	0
215	1	1	41.50894639725967	-7.662330827148296	13.416578534696615	0	0	0
216	1	1	41.621004847346754	-8.645493041042249	13.272235315475125	0	0	0
217	1	1	41.73306329743384	-9.012069253279389	12.348620252591267	0	0	0
218	1	1	41.84512174752092	-9.995231467173342	12.204277033369777	0	0	0
219	1	1	41.957180197608004	-10.361807679410482	11.28066197048592	0	0	0
220	1	1	42.06923864769509	-11.344969893304436	11.13631875126443	0	0	0
221	1	1	42.18129709778217	-11.711546105541576	10.212703688380572	0	0	0
222	1	1	42.293355547869254	-12.694708319435529	10.068360469159082	0	0	0
223	1	1	42.40541399795634	-13.06128453167267	9.144745406275224	0	0	0
224	1	1	42.51747244804342	-14.044446745566622	9.000402187053734	0	0	0
225	1	1	42.629530898130504	-14.411022957803763	8.076787124169876	0	0	0
226	1	1	42.74158934821759	-15.394185171697716	7.932443904948386	0	0	0
227	1	1	39.85934367802004	1.2530093016193433	22.305418951501434	0	0	0
228	1	1	39.778559259999575	0.4976953884476183	22.955784056941685	0	0	0
229	1	1	39.69777484197911	0.6832711349079594	23.93508764630036	0	0	0
230	1	1	39.61699042395865	-0.0720427782637656	24.58545275174061	0	0	0
231	1	1	39.53620600593818	0.1135329681965756	25.564756341099287	0	0	0
232	1	1	39.45542158791772	-0.6417809449751495	26.215121446539538	0	0	0
233	1	1	39.374637169897255	-0.4562051985148083	27.194425035898213	0	0	0
234	1	1	39.29385275187679	-1.2115191116865334	27.844790141338464	0	0	0
235	1	1	39.21306833385633	-1.0259433652261922	28.82409373069714	0	0	0
236	1	1	39.13228391583586	-1.7812572783979173	29.47445883613739	0	0	0
237	1	1	39.0514994978154	-1.5956815319375761	30.453762425496066	0	0	0
238	1	1	38.970715079794935	-2.350995445109301	31.104127530936317	0	0	0
239	1	1	38.88993066177447	-2.16541969864896	32.08343112029499	0	0	0
240	1	1	38.80914624375401	-2.920733611820685	32.73379622573524	0	0	0
241	1	1	38.72836182573354	-2.735157865360344	33.71309981509391	0	0	0
242	1	1	38.64757740771308	-3.490471778532069	34.36346492053416	0	0	0
243	1	1	38.566792989692615	-3.3048960320717278	35.342768509892835	0	0	0
244	1	1	38.48600857167215	-4.060209945243453	35.993133615333086	0	0	0
245	1	1	38.40522415365169	-3.8746341987831117	36.97243720469176	0	0	0
246	1	1	38.32443973563122	-4.629948111954837	37.62280231013201	0	0	0
247	1	1	38.24365531761076	-4.4443723654944955	38.60210589949068	0	0	0
248	1	1	38.162870899590295	-5.199686278666221	39.25247100493093	0	0	0
249	1	1	38.08208648156983	-5.014110532205879	40.231774594289604	0	0	0
250	1	1	38.00130206354937	-5.769424445377604	40.882139699729855	0	0	0
251	1	1	37.9205176455289	-5.583848698917262	41.86144328908853	0	0	0
252	1	1	37.75624552085273	-4.607758024725874	42.00378676386335	0	0	0
253	1	1	37.591973396176556	-3.833610441866465	42.615105166176996	0	0	0
254	1	1	37.42770127150038	-2.917119384232227	42.25033289429925	0	0	0
255	1	1	37.26342914682421	-2.1429718013728176	42.86165129661289	0	0	0
256	1	1	37.099157022148034	-1.2264807437385798	42.496879024735144	0	0	0
257	1	1	36.93488489747186	-0.45233316087917064	43.108197427048786	0	0	0
258	1	1	36.77061277279569	0.46415789675506713	42.74342515517104	0	0	0
259	1	1	36.60634064811951	1.2383054796144763	43.35474355748468	0	0	0
260	1	1	36.44206852344334	2.154796537248714	42.989971285606934	0	0	0
261	1	1	36.277796398767165	2.9289441201081234	43.60128968792058	0	0	0
262	1	1	36.11352427409099	3.8454351777423614	43.23651741604283	0	0	0
263	1	1	35.94925214941482	4.61958276060177	43.84783581835647	0	0	0
264	1	1	35.784980024738644	5.536073818236008	43.483063546478725	0	0	0
265	1	1	35.62070790006247	6.310221401095417	44.09438194879237	0	0	0
266	1	1	35.456435775386296	7.226712458729654	43.72960967691462	0	0	0
267	1	1	35.29216365071012	8.000860041589064	44.34092807922826	0	0	0
268	1	1	35.12789152603395	8.917351099223302	43.976155807350516	0	0	0
269	1	1	34.963619401357775	9.691498682082711	44.58747420966416	0	0	0
270	1	1	34.7993472766816	10.607989739716949	44.22270193778641	0	0	0
271	1	1	34.63507515200543	11.382137322576359	44.834020340100054	0	0	0
272	1	1	34.470803027329254	12.298628380210596	44.469248068222306	0	0	0
273	1	1	34.30653090265308	13.072775963070006	45.08056647053595	0	0	0
274	1	1	34.142258777976906	13.989267020704244	44.7157941986582	0	0	0
275	1	1	33.97798665330073	14.763414603563653	45.327112600971844	0	0	0
276	1	1	33.81371452862456	15.67990566119789	44.9623403290941	0	0	0
277	1	1	38.767151871961005	-5.849613410836449	42.32250684710653	0	0	0
278	1	1	39.613786098393106	-6.310304181796922	42.58891724514977	0	0	0
279	1	1	40.46042032482521	-6.309931394739388	43.121092355112204	0	0	0
280	1	1	41.30705455125731	-6.77062216569986	43.387502753155445	0	0	0
281	1	1	42.15368877768941	-6.770249378642326	43.919677863117876	0	0	0
282	1	1	43.00032300412151	-7.230940149602799	44.18608826116112	0	0	0
283	1	1	43.84695723055361	-7.230567362545265	44.71826337112355	0	0	0
284	1	1	44.693591456985715	-7.6912581335057375	44.98467376916679	0	0	0
285	1	1	45.540225683417816	-7.690885346448203	45.51684887912922	0	0	0
286	1	1	46.38685990984992	-8.151576117408677	45.78325927717246	0	0	0
287	1	1	47.23349413628202	-8.151203330351143	46.31543438713489	0	0	0
288	1	1	48.08012836271412	-8.611894101311616	46.581844785178134	0	0	0
289	1	1	48.92676258914622	-8.611521314254082	47.114019895140565	0	0	0
290	1	1	49.77339681557832	-9.072212085214556	47.38043029318381	0	0	0
291	1	1	50.620031042010424	-9.071839298157022	47.91260540314624	0	0	0
292	1	1	51.466665268442526	-9.532530069117495	48.17901580118948	0	0	0
293	1	1	52.31329949487463	-9.532157282059961	48.71119091115191	0	0	0
294	1	1	53.15993372130673	-9.992848053020435	48.97760130919515	0	0	0
295	1	1	54.00656794773883	-9.9924752659629	49.50977641915758	0	0	0
296	1	1	54.85320217417093	-10.453166036923374	49.77618681720082	0	0	0
297	1	1	55.69983640060303	-10.45279324986584	50.308361927163254	0	0	0
298	1	1	56.546470627035134	-10.913484020826314	50.574772325206496	0	0	0
299	1	1	57.393104853467236	-10.91311123376878	51.10694743516893	0	0	0
300	1	1	58.23973907989934	-11.373802004729253	51.37335783321217	0	0	0
301	1	1	59.08637330633144	-11.373429217671719	51.9055329431746	0	0	0
302	1	1	37.15725636520967	-6.108335289961798	42.238731022496225	0	0	0
303	1	1	36.39399508489043	-6.751197868454516	42.303228488641274	0	0	0
304	1	1	35.630733804571186	-7.0167727135395355	42.89221254583086	0	0	0
305	1	1	34.867472524251944	-7.659635292032253	42.95671001197591	0	0	0
306	1	1	34.1042112439327	-7.925210137117273	43.54569406916549	0	0	0
307	1	1	33.34094996361346	-8.56807271560999	43.61019153531054	0	0	0
308	1	1	32.57768868329422	-8.83364756069501	44.199175592500126	0	0	0
309	1	1	31.81442740297498	-9.476510139187727	44.263673058645175	0	0	0
310	1	1	31.051166122655744	-9.742084984272747	44.85265711583476	0	0	0
311	1	1	30.287904842336506	-10.384947562765465	44.91715458197981	0	0	0
312	1	1	29.524643562017268	-10.650522407850485	45.50613863916939	0	0	0
313	1	1	28.76138228169803	-11.293384986343202	45.57063610531444	0	0	0
314	1	1	27.99812100137879	-11.558959831428222	46.15962016250403	0	0	0
315	1	1	27.234859721059554	-12.20182240992094	46.224117628649076	0	0	0
316	1	1	26.471598440740316	-12.46739725500596	46.81310168583866	0	0	0
317	1	1	25.708337160421078	-13.110259833498677	46.87759915198371	0	0	0
318	1	1	24.94507588010184	-13.375834678583697	47.466583209173294	0	0	0
319	1	1	24.1818145997826	-14.018697257076415	47.53108067531834	0	0	0
320	1	1	23.418553319463363	-14.284272102161435	48.12006473250793	0	0	0
321	1	1	22.655292039144125	-14.927134680654152	48.184562198652976	0	0	0
322	1	1	21.892030758824887	-15.192709525739172	48.77354625584256	0	0	0
323	1	1	21.12876947850565	-15.83557210423189	48.83804372198761	0	0	0
324	1	1	20.36550819818641	-16.10114694931691	49.427027779177195	0	0	0
325	1	1	19.602246917867173	-16.744009527809627	49.491525245322244	0	0	0
326	1	1	18.838985637547935	-17.009584372894647	50.08050930251183	0	0	0
327	1	1	18.379533393516276	-17.808195000175626	49.69176169615501	0	0	0
328	1	1	17.920081149484616	-18.30543828795477	48.955791079749126	0	0	0
329	1	1	17.460628905452957	-19.191429182090733	49.01843109062422	0	0	0
330	1	1	17.001176661421297	-19.68867246986988	48.28246047421833	0	0	0
331	1	1	16.541724417389638	-20.57466336400584	48.345100485093425	0	0	0
332	1	1	16.08227217335798	-21.071906651784985	47.60912986868754	0	0	0
333	1	1	15.622819929326319	-21.957897545920947	47.67176987956263	0	0	0
334	1	1	15.16336768529466	-22.455140833700092	46.935799263156746	0	0	0
335	1	1	14.703915441263	-23.341131727836053	46.99843927403184	0	0	0
336	1	1	14.24446319723134	-23.8383750156152	46.26246865762595	0	0	0
337	1	1	13.78501095319968	-24.72436590975116	46.325108668501045	0	0	0
338	1	1	13.325558709168021	-25.221609197530306	45.58913805209516	0	0	0
339	1	1	12.866106465136362	-26.107600091666267	45.65177806297025	0	0	0
340	1	1	12.406654221104702	-26.604843379445413	44.915807446564365	0	0	0
341	1	1	11.947201977073043	-27.490834273581374	44.97844745743946	0	0	0
342	1	1	11.487749733041383	-27.98807756136052	44.24247684103357	0	0	0
343	1	1	11.028297489009724	-28.87406845549648	44.305116851908664	0	0	0
344	1	1	10.568845244978064	-29.371311743275626	43.56914623550278	0	0	0
345	1	1	10.109393000946405	-30.257302637411588	43.63178624637787	0	0	0
346	1	1	9.649940756914745	-30.754545925190733	42.895815629971985	0	0	0
347	1	1	9.190488512883086	-31.640536819326694	42.95845564084708	0	0	0
348	1	1	8.731036268851426	-32.13778010710584	42.22248502444119	0	0	0
349	1	1	8.271584024819767	-33.023771001241805	42.285125035316284	0	0	0
350	1	1	7.812131780788107	-33.52101428902095	41.5491544189104	0	0	0
351	1	1	7.3526795367564475	-34.40700518315691	41.61179442978549	0	0	0
352	1	1	18.18977770754534	-16.251936351594246	50.14758045459175	0	0	0
353	1	1	17.540569777542743	-15.629329494061045	50.58448978680425	0	0	0
354	1	1	16.891361847540146	-14.939651484447923	50.26375109771635	0	0	0
355	1	1	16.24215391753755	-14.317044626914722	50.70066042992885	0	0	0
356	1	1	15.592945987534952	-13.6273666173016	50.379921740840956	0	0	0
357	1	1	14.943738057532354	-13.0047597597684	50.81683107305346	0	0	0
358	1	1	14.294530127529756	-12.315081750155278	50.49609238396556	0	0	0
359	1	1	13.645322197527157	-11.692474892622077	50.93300171617806	0	0	0
360	1	1	12.99611426752456	-11.002796883008955	50.612263027090165	0	0	0
361	1	1	12.346906337521961	-10.380190025475754	51.049172359302666	0	0	0
362	1	1	11.697698407519363	-9.690512015862632	50.72843367021477	0	0	0
363	1	1	11.048490477516765	-9.067905158329431	51.16534300242727	0	0	0
364	1	1	10.399282547514167	-8.37822714871631	50.844604313339374	0	0	0
365	1	1	9.750074617511569	-7.755620291183108	51.281513645551875	0	0	0
366	1	1	9.10086668750897	-7.065942281569987	50.96077495646398	0	0	0
367	1	1	8.451658757506372	-6.4433354240367855	51.39768428867648	0	0	0
368	1	1	7.802450827503774	-5.753657414423664	51.07694559958858	0	0	0
369	1	1	7.153242897501176	-5.131050556890463	51.513854931801085	0	0	0
370	1	1	6.504034967498578	-4.441372547277341	51.19311624271319	0	0	0
371	1	1	5.85482703749598	-3.81876568974414	51.63002557492569	0	0	0
372	1	1	5.205619107493382	-3.1290876801310183	51.30928688583779	0	0	0
373	1	1	4.556411177490784	-2.5064808225978172	51.746196218050294	0	0	0
374	1	1	3.9072032474881855	-1.8168028129846954	51.4254575289624	0	0	0
375	1	1	3.2579953174855873	-1.1941959554514945	51.8623668611749	0	0	0
376	1	1	2.608787387482989	-0.5045179458383726	51.541628172087	0	0	0
377	1	1	19.183300259307856	-17.234573881702044	50.99200651159638	0	0	0
378	1	1	19.527614881067777	-17.88516911645651	51.66889149573852	0	0	0
379	1	1	19.871929502827697	-17.624267142126424	52.57076598868806	0	0	0
380	1	1	20.216244124587618	-18.27486237688089	53.2476509728302	0	0	0
381	1	1	20.56055874634754	-18.013960402550804	54.14952546577974	0	0	0
382	1	1	20.90487336810746	-18.66455563730527	54.82641044992188	0	0	0
383	1	1	21.24918798986738	-18.403653662975184	55.72828494287142	0	0	0
384	1	1	21.5935026116273	-19.05424889772965	56.40516992701356	0	0	0
385	1	1	21.93781723338722	-18.793346923399564	57.3070444199631	0	0	0
386	1	1	22.282131855147142	-19.44394215815403	57.98392940410524	0	0	0
387	1	1	22.626446476907063	-19.183040183823945	58.88580389705478	0	0	0
388	1	1	22.970761098666983	-19.83363541857841	59.56268888119692	0	0	0
389	1	1	23.315075720426904	-19.572733444248325	60.46456337414646	0	0	0
390	1	1	23.659390342186825	-20.22332867900279	61.1414483582886	0	0	0
391	1	1	24.003704963946745	-19.962426704672705	62.04332285123814	0	0	0
392	1	1	24.348019585706666	-20.61302193942717	62.72020783538028	0	0	0
393	1	1	24.692334207466587	-20.352119965097085	63.62208232832982	0	0	0
394	1	1	25.036648829226507	-21.00271519985155	64.29896731247196	0	0	0
395	1	1	25.380963450986428	-20.741813225521465	65.20084180542149	0	0	0
396	1	1	25.72527807274635	-21.39240846027593	65.87772678956362	0	0	0
397	1	1	26.06959269450627	-21.131506485945845	66.77960128251316	0	0	0
398	1	1	26.41390731626619	-21.78210172070031	67.45648626665529	0	0	0
399	1	1	26.75822193802611	-21.521199746370225	68.35836075960482	0	0	0
400	1	1	27.10253655978603	-22.17179498112469	69.03524574374696	0	0	0
401	1	1	27.446851181545952	-21.910893006794605	69.93712023669649	0	0	0

Bonds

1	1	1	2
2	1	2	3
3	1	3	4
4	1	4	5
5	1	5	6
6	1	6	7
7	1	7	8
8	1	8	9
9	1	9	10
10	1	10	11
11	1	11	12
12	1	12	13
13	1	13	14
14	1	14	15
15	1	15	16
16	1	16	17
17	1	17	18
18	1	18	19
19	1	19	20
20	1	20	21
21	1	21	22
22	1	22	23
23	1	23	24
24	1	24	25
25	1	25	26
26	1	26	27
27	1	26	52
28	1	26	77
29	1	27	28
30	1	28	29
31	1	29	30
32	1	30	31
33	1	31	32
34	1	32	33
35	1	33	34
36	1	34	35
37	1	35	36
38	1	36	37
39	1	37	38
40	1	38	39
41	1	39	40
42	1	40	41
43	1	41	42
44	1	42	43
45	1	43	44
46	1	44	45
47	1	45	46
48	1	46	47
49	1	47	48
50	1	48	49
51	1	49	50
52	1	50	51
53	1	52	53
54	1	53	54
55	1	54	55
56	1	55	56
57	1	56	57
58	1	57	58
59	1	58	59
60	1	59	60
61	1	60	61
62	1	61	62
63	1	62	63
64	1	63	64
65	1	64	65
66	1	65	66
67	1	66	67
68	1	67	68
69	1	68	69
70	1	69	70
71	1	70	71
72	1	71	72
73	1	72	73
74	1	73	74
75	1	74	75
76	1	75	76
77	1	77	78
78	1	78	79
79	1	79	80
80	1	80	81
81	1	81	82
82	1	82	83
83	1	83	84
84	1	84	85
85	1	85	86
86	1	86	87
87	1	87	88
88	1	88	89
89	1	89	90
90	1	90	91
91	1	91	92
92	1	92	93
93	1	93	94
94	1	94	95
95	1	95	96
96	1	96	97
97	1	97	98
98	1	98	99
99	1	99	100
100	1	100	101
101	1	101	102
102	1	101	127
103	1	101	152
104	1	102	103
105	1	103	104
106	1	104	105
107	1	105	106
108	1	106	107
109	1	107	108
110	1	108	109
111	1	109	110
112	1	110	111
113	1	111	112
114	1	112	113
115	1	113	114
116	1	114	115
117	1	115	116
118	1	116	117
119	1	117	118
120	1	118	119
121	1	119	120
122	1	120	121
123	1	121	122
124	1	122	123
125	1	123	124
126	1	124	125
127	1	125	126
128	1	127	128
129	1	128	129
130	1	129	130
131	1	130	131
132	1	131	132
133	1	132	133
134	1	133	134
135	1	134	135
136	1	135	136
137	1	136	137
138	1	137	138
139	1	138	139
140	1	139	140
141	1	140	141
142	1	141	142
143	1	142	143
144	1	143	144
145	1	144	145
146	1	145	146
147	1	146	147
148	1	147	148
149	1	148	149
150	1	149	150
151	1	150	151
152	1	152	153
153	1	153	154
154	1	154	155
155	1	155	156
156	1	156	157
157	1	157	158
158	1	158	159
159	1	159	160
160	1	160	161
161	1	161	162
162	1	162	163
163	1	163	164
164	1	164	165
165	1	165	166
166	1	166	167
167	1	167	168
168	1	168	169
169	1	169	170
170	1	170	171
171	1	171	172
172	1	172	173
173	1	173	174
174	1	174	175
175	1	175	176
176	1	176	177
177	1	176	202
178	1	176	227
179	1	177	178
180	1	178	179
181	1	179	180
182	1	180	181
183	1	181	182
184	1	182	183
185	1	183	184
186	1	184	185
187	1	185	186
188	1	186	187
189	1	187	188
190	1	188	189
191	1	189	190
192	1	190	191
193	1	191	192
194	1	192	193
195	1	193	194
196	1	194	195
197	1	195	196
198	1	196	197