bb187nuc5bl31bn4d30tot500V2

497 atoms
496 bonds
510 angles

1 atom types
1 bond types
1 angle types

-1000 1000 xlo xhi
-1000 1000 ylo yhi
-1000 1000 zlo zhi

Masses

1 1

Atoms

1	1	1	0.0	0.0	0.0	0	0	0
2	1	1	0.0	0.0	1.0	0	0	0
3	1	1	0.0	-0.49999999999999994	1.8660254037844388	0	0	0
4	1	1	0.0	0.0	2.7320508075688776	0	0	0
5	1	1	0.0	-0.49999999999999994	3.5980762113533165	0	0	0
6	1	1	0.0	0.0	4.464101615137755	0	0	0
7	1	1	0.0	-0.49999999999999994	5.330127018922194	0	0	0
8	1	1	0.0	0.0	6.196152422706632	0	0	0
9	1	1	0.0	-0.49999999999999994	7.06217782649107	0	0	0
10	1	1	0.0	0.0	7.928203230275509	0	0	0
11	1	1	0.0	-0.49999999999999994	8.794228634059948	0	0	0
12	1	1	0.0	0.0	9.660254037844387	0	0	0
13	1	1	0.0	-0.49999999999999994	10.526279441628827	0	0	0
14	1	1	0.0	0.0	11.392304845413266	0	0	0
15	1	1	0.0	-0.49999999999999994	12.258330249197705	0	0	0
16	1	1	0.0	0.0	13.124355652982144	0	0	0
17	1	1	0.0	-0.49999999999999994	13.990381056766584	0	0	0
18	1	1	0.0	0.0	14.856406460551023	0	0	0
19	1	1	0.0	-0.49999999999999994	15.722431864335462	0	0	0
20	1	1	0.0	0.0	16.5884572681199	0	0	0
21	1	1	0.0	-0.49999999999999994	17.454482671904337	0	0	0
22	1	1	0.0	0.0	18.320508075688775	0	0	0
23	1	1	0.0	-0.49999999999999994	19.186533479473212	0	0	0
24	1	1	0.0	0.0	20.05255888325765	0	0	0
25	1	1	0.0	-0.49999999999999994	20.918584287042087	0	0	0
26	1	1	0.0	0.0	21.784609690826525	0	0	0
27	1	1	0.0	-0.49999999999999994	22.650635094610962	0	0	0
28	1	1	0.0	0.0	23.5166604983954	0	0	0
29	1	1	0.0	-0.49999999999999994	24.382685902179837	0	0	0
30	1	1	0.0	0.0	25.248711305964274	0	0	0
31	1	1	0.0	-0.49999999999999994	26.114736709748712	0	0	0
32	1	1	0.0	0.0	26.98076211353315	0	0	0
33	1	1	-0.9345384122688946	0.27371261715153866	27.208181020412034	0	0	0
34	1	1	-1.8690768245377902	0.39704524350165366	27.541987879645806	0	0	0
35	1	1	-2.803615236806686	0.7477967767306528	27.60208212172804	0	0	0
36	1	1	-3.738153649075582	0.8711294030807678	27.93588898096181	0	0	0
37	1	1	-4.672692061344478	1.221880936309767	27.995983223044043	0	0	0
38	1	1	-5.607230473613373	1.345213562659882	28.329790082277814	0	0	0
39	1	1	-6.541768885882268	1.695965095888881	28.389884324360047	0	0	0
40	1	1	-7.476307298151164	1.8192977222389959	28.723691183593818	0	0	0
41	1	1	-8.410845710420059	2.170049255467995	28.78378542567605	0	0	0
42	1	1	-9.345384122688955	2.2933818818181098	29.117592284909822	0	0	0
43	1	1	-10.279922534957851	2.6441334150471087	29.177686526992055	0	0	0
44	1	1	-11.214460947226748	2.7674660413972236	29.511493386225826	0	0	0
45	1	1	-12.148999359495644	3.1182175746262226	29.57158762830806	0	0	0
46	1	1	-13.08353777176454	3.2415502009763375	29.90539448754183	0	0	0
47	1	1	-14.018076184033436	3.5923017342053365	29.965488729624063	0	0	0
48	1	1	-14.952614596302332	3.7156343605554514	30.299295588857834	0	0	0
49	1	1	-15.887153008571229	4.06638589378445	30.359389830940067	0	0	0
50	1	1	-16.821691420840125	4.189718520134566	30.69319669017384	0	0	0
51	1	1	-17.75622983310902	4.540470053363565	30.75329093225607	0	0	0
52	1	1	-18.690768245377917	4.6638026797136805	31.087097791489843	0	0	0
53	1	1	-19.625306657646814	5.01455421294268	31.147192033572075	0	0	0
54	1	1	-20.55984506991571	5.137886839292795	31.480998892805847	0	0	0
55	1	1	-21.494383482184606	5.488638372521795	31.54109313488808	0	0	0
56	1	1	-22.428921894453502	5.61197099887191	31.87489999412185	0	0	0
57	1	1	-23.3634603067224	5.962722532100909	31.934994236204084	0	0	0
58	1	1	-24.297998718991295	6.086055158451025	32.26880109543785	0	0	0
59	1	1	-25.23253713126019	6.436806691680024	32.32889533752008	0	0	0
60	1	1	-26.167075543529087	6.5601393180301395	32.66270219675385	0	0	0
61	1	1	-27.101613955797983	6.910890851259139	32.72279643883608	0	0	0
62	1	1	-28.03615236806688	7.034223477609254	33.056603298069845	0	0	0
63	1	1	-28.970690780335776	7.384975010838254	33.116697540152074	0	0	0
64	1	1	0.5740783936690987	0.8144026450512307	26.896013487256	0	0	0
65	1	1	1.1481567873381981	1.5620703377134135	27.22982034648977	0	0	0
66	1	1	1.7222351810072976	2.224989404098446	26.74922456067231	0	0	0
67	1	1	2.2963135746763967	2.9726570967606287	27.08303141990608	0	0	0
68	1	1	2.870391968345496	3.635576163145662	26.60243563408862	0	0	0
69	1	1	3.444470362014595	4.383243855807844	26.936242493322393	0	0	0
70	1	1	4.018548755683694	5.046162922192877	26.455646707504933	0	0	0
71	1	1	4.5926271493527935	5.79383061485506	26.789453566738704	0	0	0
72	1	1	5.166705543021893	6.456749681240093	26.308857780921244	0	0	0
73	1	1	5.740783936690992	7.204417373902276	26.642664640155015	0	0	0
74	1	1	6.314862330360091	7.867336440287309	26.162068854337555	0	0	0
75	1	1	6.88894072402919	8.615004132949492	26.495875713571326	0	0	0
76	1	1	7.463019117698289	9.277923199334525	26.015279927753866	0	0	0
77	1	1	8.037097511367389	10.025590891996709	26.349086786987638	0	0	0
78	1	1	8.611175905036488	10.688509958381742	25.868491001170177	0	0	0
79	1	1	9.185254298705587	11.436177651043925	26.20229786040395	0	0	0
80	1	1	9.759332692374686	12.099096717428958	25.72170207458649	0	0	0
81	1	1	10.333411086043785	12.846764410091142	26.05550893382026	0	0	0
82	1	1	10.907489479712885	13.509683476476175	25.5749131480028	0	0	0
83	1	1	11.481567873381984	14.257351169138358	25.90872000723657	0	0	0
84	1	1	12.055646267051083	14.920270235523391	25.42812422141911	0	0	0
85	1	1	12.629724660720182	15.667937928185575	25.761931080652882	0	0	0
86	1	1	13.203803054389281	16.330856994570606	25.281335294835422	0	0	0
87	1	1	13.77788144805838	17.07852468723279	25.615142154069193	0	0	0
88	1	1	14.35195984172748	17.741443753617823	25.134546368251733	0	0	0
89	1	1	14.926038235396579	18.489111446280006	25.468353227485505	0	0	0
90	1	1	15.500116629065678	19.15203051266504	24.987757441668045	0	0	0
91	1	1	16.074195022734777	19.899698205327223	25.321564300901816	0	0	0
92	1	1	16.648273416403878	20.562617271712256	24.840968515084356	0	0	0
93	1	1	17.22235181007298	21.31028496437444	25.174775374318127	0	0	0
94	1	1	17.79643020374208	21.973204030759472	24.694179588500667	0	0	0
95	1	1	0.36046001859979837	-0.5874049733521105	27.70534749309324	0	0	0
96	1	1	0.7209200371995972	-1.4584052923644046	28.03915435232701	0	0	0
97	1	1	1.081380055799396	-1.6048202318166098	28.960366184912893	0	0	0
98	1	1	1.4418400743991948	-2.475820550828904	29.294173044146664	0	0	0
99	1	1	1.8023000929989936	-2.622235490281109	30.215384876732546	0	0	0
100	1	1	2.1627601115987924	-3.493235809293403	30.549191735966318	0	0	0
101	1	1	2.5232201301985913	-3.639650748745608	31.4704035685522	0	0	0
102	1	1	2.88368014879839	-4.510651067757902	31.80421042778597	0	0	0
103	1	1	3.244140167398189	-4.657066007210107	32.72542226037186	0	0	0
104	1	1	3.6046001859979877	-5.528066326222401	33.05922911960563	0	0	0
105	1	1	3.9650602045977865	-5.674481265674606	33.980440952191515	0	0	0
106	1	1	4.325520223197585	-6.5454815846869	34.31424781142529	0	0	0
107	1	1	4.685980241797384	-6.691896524139105	35.23545964401117	0	0	0
108	1	1	5.0464402603971825	-7.5628968431514	35.56926650324495	0	0	0
109	1	1	5.406900278996981	-7.709311782603605	36.49047833583083	0	0	0
110	1	1	5.76736029759678	-8.580312101615899	36.824285195064604	0	0	0
111	1	1	6.127820316196579	-8.726727041068104	37.74549702765049	0	0	0
112	1	1	6.488280334796378	-9.597727360080398	38.07930388688426	0	0	0
113	1	1	6.848740353396177	-9.744142299532603	39.000515719470144	0	0	0
114	1	1	7.209200371995975	-10.615142618544898	39.33432257870392	0	0	0
115	1	1	7.569660390595774	-10.761557557997103	40.2555344112898	0	0	0
116	1	1	7.930120409195573	-11.632557877009397	40.589341270523576	0	0	0
117	1	1	8.290580427795373	-11.778972816461602	41.51055310310946	0	0	0
118	1	1	8.651040446395172	-12.649973135473896	41.84435996234323	0	0	0
119	1	1	9.01150046499497	-12.796388074926101	42.765571794929116	0	0	0
120	1	1	9.37196048359477	-13.667388393938396	43.09937865416289	0	0	0
121	1	1	9.732420502194568	-13.8138033333906	44.02059048674877	0	0	0
122	1	1	10.092880520794367	-14.684803652402895	44.35439734598255	0	0	0
123	1	1	10.453340539394166	-14.8312185918551	45.27560917856843	0	0	0
124	1	1	10.813800557993964	-15.702218910867394	45.609416037802205	0	0	0
125	1	1	11.174260576593763	-15.8486338503196	46.53062787038809	0	0	0
126	1	1	10.654656948319625	-16.574772404412762	46.98088876114348	0	0	0
127	1	1	10.135053320045486	-17.42875728430244	47.00775685382168	0	0	0
128	1	1	9.615449691771348	-17.832481273436724	47.76076350059304	0	0	0
129	1	1	9.09584606349721	-18.6864661533264	47.78763159327124	0	0	0
130	1	1	8.57624243522307	-19.090190142460685	48.540638240042604	0	0	0
131	1	1	8.056638806948932	-19.94417502235036	48.567506332720804	0	0	0
132	1	1	7.537035178674794	-20.347899011484646	49.320512979492165	0	0	0
133	1	1	7.017431550400655	-21.201883891374322	49.347381072170364	0	0	0
134	1	1	6.4978279221265165	-21.605607880508607	50.100387718941725	0	0	0
135	1	1	5.978224293852378	-22.459592760398284	50.127255811619925	0	0	0
136	1	1	5.458620665578239	-22.86331674953257	50.880262458391286	0	0	0
137	1	1	4.939017037304101	-23.717301629422245	50.907130551069486	0	0	0
138	1	1	4.419413409029962	-24.12102561855653	51.66013719784085	0	0	0
139	1	1	3.8998097807558234	-24.975010498446206	51.687005290519046	0	0	0
140	1	1	3.3802061524816844	-25.37873448758049	52.44001193729041	0	0	0
141	1	1	2.8606025242075455	-26.232719367470168	52.46688002996861	0	0	0
142	1	1	2.3409988959334065	-26.636443356604453	53.21988667673997	0	0	0
143	1	1	1.8213952676592675	-27.49042823649413	53.24675476941817	0	0	0
144	1	1	1.3017916393851285	-27.894152225628414	53.99976141618953	0	0	0
145	1	1	0.7821880111109897	-28.74813710551809	54.02662950886773	0	0	0
146	1	1	0.2625843828368508	-29.151861094652375	54.77963615563909	0	0	0
147	1	1	-0.25701924543728805	-30.00584597454205	54.80650424831729	0	0	0
148	1	1	-0.7766228737114269	-30.409569963676336	55.55951089508865	0	0	0
149	1	1	-1.2962265019855659	-31.263554843566013	55.58637898776685	0	0	0
150	1	1	-1.8158301302597049	-31.667278832700298	56.33938563453821	0	0	0
151	1	1	-2.335433758533844	-32.52126371258998	56.36625372721641	0	0	0
152	1	1	-2.855037386807983	-32.92498770172426	57.11926037398777	0	0	0
153	1	1	-3.3746410150821218	-33.77897258161394	57.14612846666597	0	0	0
154	1	1	-3.8942446433562607	-34.18269657074823	57.89913511343733	0	0	0
155	1	1	-4.4138482716304	-35.03668145063791	57.92600320611553	0	0	0
156	1	1	-4.933451899904538	-35.44040543977219	58.67900985288689	0	0	0
157	1	1	11.092332941094917	-15.003783149254163	47.05931979906755	0	0	0
158	1	1	11.01040530559607	-14.536466944066133	47.939605790612475	0	0	0
159	1	1	10.928477670097223	-13.540458810198642	47.97504108109196	0	0	0
160	1	1	10.846550034598376	-13.073142605010611	48.85532707263688	0	0	0
161	1	1	10.76462239909953	-12.07713447114312	48.890762363116366	0	0	0
162	1	1	10.682694763600683	-11.60981826595509	49.77104835466129	0	0	0
163	1	1	10.600767128101836	-10.613810132087599	49.80648364514077	0	0	0
164	1	1	10.51883949260299	-10.146493926899568	50.686769636685696	0	0	0
165	1	1	10.436911857104143	-9.150485793032077	50.72220492716518	0	0	0
166	1	1	10.354984221605296	-8.683169587844047	51.6024909187101	0	0	0
167	1	1	10.27305658610645	-7.687161453976556	51.63792620918959	0	0	0
168	1	1	10.191128950607602	-7.219845248788526	52.51821220073451	0	0	0
169	1	1	10.109201315108756	-6.223837114921035	52.553647491213994	0	0	0
170	1	1	10.027273679609909	-5.7565209097330055	53.43393348275892	0	0	0
171	1	1	9.945346044111062	-4.760512775865514	53.4693687732384	0	0	0
172	1	1	9.863418408612215	-4.293196570677485	54.349654764783324	0	0	0
173	1	1	9.781490773113369	-3.2971884368099933	54.38509005526281	0	0	0
174	1	1	9.699563137614522	-2.8298722316219633	55.26537604680773	0	0	0
175	1	1	9.617635502115675	-1.8338640977544718	55.300811337287215	0	0	0
176	1	1	9.535707866616828	-1.366547892566442	56.18109732883214	0	0	0
177	1	1	9.453780231117982	-0.3705397586989506	56.21653261931162	0	0	0
178	1	1	9.371852595619135	0.09677644648907918	57.096818610856545	0	0	0
179	1	1	9.289924960120288	1.0927845803565706	57.13225390133603	0	0	0
180	1	1	9.207997324621441	1.5601007855446003	58.01253989288095	0	0	0
181	1	1	9.126069689122595	2.556108919412092	58.047975183360435	0	0	0
182	1	1	9.044142053623748	3.023425124600122	58.92826117490536	0	0	0
183	1	1	8.962214418124901	4.019433258467613	58.96369646538484	0	0	0
184	1	1	8.880286782626055	4.486749463655642	59.843982456929766	0	0	0
185	1	1	8.798359147127208	5.4827575975231335	59.87941774740925	0	0	0
186	1	1	8.716431511628361	5.950073802711163	60.75970373895417	0	0	0
187	1	1	8.634503876129514	6.946081936578654	60.795139029433656	0	0	0
188	1	1	12.136763920431186	-16.113968930542203	46.47419553652667	0	0	0
189	1	1	13.099267264268608	-16.31553968359945	46.29265616169654	0	0	0
190	1	1	14.06177060810603	-16.573542770518113	46.37645186708901	0	0	0
191	1	1	15.024273951943453	-16.77511352357536	46.19491249225888	0	0	0
192	1	1	15.986777295780875	-17.033116610494023	46.27870819765135	0	0	0
193	1	1	16.949280639618298	-17.23468736355127	46.09716882282122	0	0	0
194	1	1	17.91178398345572	-17.492690450469933	46.180964528213686	0	0	0
195	1	1	18.874287327293143	-17.69426120352718	45.999425153383555	0	0	0
196	1	1	19.836790671130565	-17.952264290445843	46.08322085877602	0	0	0
197	1	1	20.799294014967987	-18.15383504350309	45.90168148394589	0	0	0
198	1	1	21.76179735880541	-18.411838130421753	45.98547718933836	0	0	0
199	1	1	22.724300702642832	-18.613408883479	45.80393781450823	0	0	0
200	1	1	23.686804046480255	-18.871411970397663	45.8877335199007	0	0	0
201	1	1	24.649307390317677	-19.07298272345491	45.70619414507057	0	0	0
202	1	1	25.6118107341551	-19.330985810373573	45.78998985046304	0	0	0
203	1	1	26.574314077992522	-19.53255656343082	45.60845047563291	0	0	0
204	1	1	27.536817421829944	-19.790559650349483	45.692246181025375	0	0	0
205	1	1	28.499320765667367	-19.99213040340673	45.510706806195245	0	0	0
206	1	1	29.46182410950479	-20.250133490325393	45.59450251158771	0	0	0
207	1	1	30.42432745334221	-20.45170424338264	45.41296313675758	0	0	0
208	1	1	31.386830797179634	-20.709707330301303	45.49675884215005	0	0	0
209	1	1	32.34933414101705	-20.91127808335855	45.31521946731992	0	0	0
210	1	1	33.31183748485447	-21.169281170277213	45.39901517271239	0	0	0
211	1	1	34.27434082869189	-21.37085192333446	45.21747579788226	0	0	0
212	1	1	35.23684417252931	-21.628855010253123	45.30127150327473	0	0	0
213	1	1	36.19934751636673	-21.83042576331037	45.119732128444596	0	0	0
214	1	1	37.16185086020415	-22.088428850229032	45.203527833837065	0	0	0
215	1	1	38.124354204041566	-22.28999960328628	45.021988459006934	0	0	0
216	1	1	39.086857547878985	-22.548002690204942	45.1057841643994	0	0	0
217	1	1	40.049360891716404	-22.74957344326219	44.92424478956927	0	0	0
218	1	1	41.01186423555382	-23.007576530180852	45.00804049496174	0	0	0
219	1	1	41.51438613688131	-22.68753421554036	44.20489377391648	0	0	0
220	1	1	42.016908038208804	-22.008796080253088	43.66936946784536	0	0	0
221	1	1	42.519429939536295	-22.13320466601108	42.813802847133736	0	0	0
222	1	1	43.021951840863785	-21.454466530723806	42.27827854106261	0	0	0
223	1	1	43.524473742191276	-21.578875116481797	41.42271192035099	0	0	0
224	1	1	44.02699564351877	-20.900136981194525	40.88718761427987	0	0	0
225	1	1	44.52951754484626	-21.024545566952515	40.03162099356825	0	0	0
226	1	1	45.03203944617375	-20.345807431665243	39.49609668749712	0	0	0
227	1	1	45.53456134750124	-20.470216017423233	38.6405300667855	0	0	0
228	1	1	46.03708324882873	-19.79147788213596	38.10500576071438	0	0	0
229	1	1	46.53960515015622	-19.91588646789395	37.24943914000276	0	0	0
230	1	1	47.04212705148371	-19.23714833260668	36.71391483393163	0	0	0
231	1	1	47.5446489528112	-19.36155691836467	35.85834821322001	0	0	0
232	1	1	48.04717085413869	-18.682818783077398	35.32282390714889	0	0	0
233	1	1	48.54969275546618	-18.807227368835388	34.46725728643727	0	0	0
234	1	1	49.05221465679367	-18.128489233548116	33.93173298036614	0	0	0
235	1	1	49.554736558121164	-18.252897819306106	33.07616635965452	0	0	0
236	1	1	50.057258459448654	-17.574159684018834	32.5406420535834	0	0	0
237	1	1	50.559780360776145	-17.698568269776825	31.685075432871777	0	0	0
238	1	1	51.062302262103636	-17.019830134489553	31.149551126800652	0	0	0
239	1	1	51.564824163431126	-17.144238720247543	30.293984506089032	0	0	0
240	1	1	52.06734606475862	-16.46550058496027	29.758460200017907	0	0	0
241	1	1	52.56986796608611	-16.58990917071826	28.902893579306287	0	0	0
242	1	1	53.0723898674136	-15.91117103543099	28.367369273235163	0	0	0
243	1	1	53.57491176874109	-16.03557962118898	27.511802652523542	0	0	0
244	1	1	54.07743367006858	-15.356841485901708	26.976278346452418	0	0	0
245	1	1	54.57995557139607	-15.481250071659698	26.120711725740797	0	0	0
246	1	1	55.08247747272356	-14.802511936372426	25.585187419669673	0	0	0
247	1	1	55.58499937405105	-14.926920522130416	24.729620798958052	0	0	0
248	1	1	56.08752127537854	-14.248182386843144	24.194096492886928	0	0	0
249	1	1	56.59004317670603	-14.372590972601134	23.338529872175307	0	0	0
250	1	1	41.086310953366734	-24.002714939166623	45.072517104427064	0	0	0
251	1	1	41.160757671179645	-24.896768386362595	44.63078628168104	0	0	0
252	1	1	41.23520438899256	-25.72634522409324	45.18419386792079	0	0	0
253	1	1	41.30965110680547	-26.620398671289212	44.742463045174766	0	0	0
254	1	1	41.38409782461838	-27.449975509019858	45.295870631414516	0	0	0
255	1	1	41.45854454243129	-28.34402895621583	44.85413980866849	0	0	0
256	1	1	41.5329912602442	-29.173605793946475	45.40754739490824	0	0	0
257	1	1	41.60743797805711	-30.067659241142447	44.96581657216222	0	0	0
258	1	1	41.681884695870025	-30.897236078873092	45.51922415840197	0	0	0
259	1	1	41.756331413682936	-31.791289526069065	45.077493335655944	0	0	0
260	1	1	41.83077813149585	-32.62086636379971	45.630900921895694	0	0	0
261	1	1	41.90522484930876	-33.514919810995686	45.18917009914967	0	0	0
262	1	1	41.97967156712167	-34.344496648726334	45.74257768538942	0	0	0
263	1	1	42.05411828493458	-35.23855009592231	45.3008468626434	0	0	0
264	1	1	42.12856500274749	-36.068126933652955	45.85425444888315	0	0	0
265	1	1	42.203011720560404	-36.96218038084893	45.41252362613712	0	0	0
266	1	1	42.277458438373316	-37.791757218579576	45.96593121237687	0	0	0
267	1	1	42.35190515618623	-38.68581066577555	45.52420038963085	0	0	0
268	1	1	42.42635187399914	-39.5153875035062	46.0776079758706	0	0	0
269	1	1	42.50079859181205	-40.40944095070217	45.635877153124575	0	0	0
270	1	1	42.57524530962496	-41.23901778843282	46.189284739364325	0	0	0
271	1	1	42.64969202743787	-42.13307123562879	45.7475539166183	0	0	0
272	1	1	42.724138745250784	-42.96264807335944	46.30096150285805	0	0	0
273	1	1	42.798585463063695	-43.85670152055541	45.85923068011203	0	0	0
274	1	1	42.873032180876606	-44.68627835828606	46.41263826635178	0	0	0
275	1	1	42.94747889868952	-45.58033180548203	45.97090744360575	0	0	0
276	1	1	43.02192561650243	-46.40990864321268	46.5243150298455	0	0	0
277	1	1	43.09637233431534	-47.30396209040865	46.08258420709948	0	0	0
278	1	1	43.17081905212825	-48.1335389281393	46.63599179333923	0	0	0
279	1	1	43.24526576994116	-49.027592375335274	46.194260970593206	0	0	0
280	1	1	43.319712487754074	-49.85716921306592	46.747668556832956	0	0	0
281	1	1	41.39876627103853	-22.590850036186396	45.83062535024469	0	0	0
282	1	1	41.78566830652324	-22.641246733598646	46.7513679786853	0	0	0
283	1	1	42.17257034200795	-21.869058575727944	47.255384113131456	0	0	0
284	1	1	42.55947237749266	-21.919455273140194	48.17612674157207	0	0	0
285	1	1	42.94637441297737	-21.147267115269493	48.68014287601822	0	0	0
286	1	1	43.33327644846208	-21.197663812681743	49.60088550445884	0	0	0
287	1	1	43.72017848394679	-20.42547565481104	50.10490163890499	0	0	0
288	1	1	44.1070805194315	-20.47587235222329	51.025644267345605	0	0	0
289	1	1	44.49398255491621	-19.70368419435259	51.52966040179176	0	0	0
290	1	1	44.88088459040092	-19.75408089176484	52.45040303023237	0	0	0
291	1	1	45.26778662588563	-18.98189273389414	52.95441916467853	0	0	0
292	1	1	45.654688661370336	-19.03228943130639	53.87516179311914	0	0	0
293	1	1	46.041590696855046	-18.260101273435687	54.379177927565294	0	0	0
294	1	1	46.428492732339755	-18.310497970847937	55.29992055600591	0	0	0
295	1	1	46.815394767824465	-17.538309812977236	55.80393669045206	0	0	0
296	1	1	47.202296803309174	-17.588706510389486	56.724679318892676	0	0	0
297	1	1	47.589198838793884	-16.816518352518784	57.22869545333883	0	0	0
298	1	1	47.97610087427859	-16.866915049931034	58.149438081779444	0	0	0
299	1	1	48.3630029097633	-16.094726892060333	58.6534542162256	0	0	0
300	1	1	48.74990494524801	-16.145123589472583	59.57419684466621	0	0	0
301	1	1	49.13680698073272	-15.372935431601881	60.078212979112365	0	0	0
302	1	1	49.52370901621743	-15.423332129014133	60.99895560755298	0	0	0
303	1	1	49.91061105170214	-14.651143971143432	61.50297174199913	0	0	0
304	1	1	50.29751308718685	-14.701540668555683	62.42371437043975	0	0	0
305	1	1	50.68441512267156	-13.929352510684982	62.9277305048859	0	0	0
306	1	1	51.07131715815627	-13.979749208097234	63.848473133326515	0	0	0
307	1	1	51.45821919364098	-13.207561050226532	64.35248926777267	0	0	0
308	1	1	51.84512122912569	-13.257957747638784	65.27323189621328	0	0	0
309	1	1	52.2320232646104	-12.485769589768083	65.77724803065942	0	0	0
310	1	1	52.61892530009511	-12.536166287180334	66.69799065910003	0	0	0
311	1	1	53.005827335579816	-11.763978129309633	67.20200679354618	0	0	0
312	1	1	52.2879186682442	-11.092972307388221	67.38736680086159	0	0	0
313	1	1	51.57001000090859	-10.604544223174724	67.8833961870031	0	0	0
314	1	1	50.852101333572975	-9.930756131645817	67.7084197512232	0	0	0
315	1	1	50.13419266623736	-9.44232804743232	68.20444913736472	0	0	0
316	1	1	49.41628399890175	-8.768539955903412	68.02947270158482	0	0	0
317	1	1	48.69837533156613	-8.280111871689915	68.52550208772634	0	0	0
318	1	1	47.98046666423052	-7.606323780161008	68.35052565194644	0	0	0
319	1	1	47.262557996894905	-7.117895695947511	68.84655503808796	0	0	0
320	1	1	46.54464932955929	-6.444107604418605	68.67157860230806	0	0	0
321	1	1	45.82674066222368	-5.955679520205107	69.16760798844957	0	0	0
322	1	1	45.108831994888064	-5.281891428676201	68.99263155266968	0	0	0
323	1	1	44.39092332755245	-4.793463344462704	69.4886609388112	0	0	0
324	1	1	43.673014660216836	-4.119675252933797	69.3136845030313	0	0	0
325	1	1	42.95510599288122	-3.6312471687203	69.80971388917281	0	0	0
326	1	1	42.23719732554561	-2.957459077191394	69.63473745339292	0	0	0
327	1	1	41.519288658209994	-2.4690309929778964	70.13076683953443	0	0	0
328	1	1	40.80137999087438	-1.79524290144899	69.95579040375453	0	0	0
329	1	1	40.08347132353877	-1.3068148172354928	70.45181978989605	0	0	0
330	1	1	39.36556265620315	-0.6330267257065862	70.27684335411615	0	0	0
331	1	1	38.64765398886754	-0.14459864149308904	70.77287274025767	0	0	0
332	1	1	37.929745321531925	0.5291894500358174	70.59789630447777	0	0	0
333	1	1	37.21183665419631	1.0176175342493146	71.09392569061929	0	0	0
334	1	1	36.4939279868607	1.691405625778221	70.91894925483939	0	0	0
335	1	1	35.77601931952508	2.179833709991718	71.4149786409809	0	0	0
336	1	1	35.05811065218947	2.8536218015206245	71.24000220520101	0	0	0
337	1	1	34.340201984853856	3.342049885734122	71.73603159134252	0	0	0
338	1	1	33.62229331751824	4.015837977263028	71.56105515556263	0	0	0
339	1	1	32.90438465018263	4.5042660614765255	72.05708454170414	0	0	0
340	1	1	32.186475982847014	5.178054153005432	71.88210810592425	0	0	0
341	1	1	31.4685673155114	5.666482237218929	72.37813749206576	0	0	0
342	1	1	30.750658648175786	6.3402703287478355	72.20316105628586	0	0	0
343	1	1	53.72743870817696	-11.337369953147208	66.65677061447344	0	0	0
344	1	1	54.44905008077411	-10.695298345592034	66.39788632041531	0	0	0
345	1	1	55.17066145337125	-10.598462917109591	65.71239385019474	0	0	0
346	1	1	55.8922728259684	-9.956391309554418	65.45350955613661	0	0	0
347	1	1	56.61388419856554	-9.859555881071975	64.76801708591604	0	0	0
348	1	1	57.33549557116269	-9.217484273516801	64.50913279185791	0	0	0
349	1	1	58.057106943759834	-9.120648845034358	63.82364032163735	0	0	0
350	1	1	58.77871831635698	-8.478577237479184	63.564756027579215	0	0	0
351	1	1	59.500329688954125	-8.381741808996741	62.879263557358655	0	0	0
352	1	1	60.22194106155127	-7.739670201441568	62.62037926330052	0	0	0
353	1	1	60.943552434148415	-7.642834772959125	61.93488679307996	0	0	0
354	1	1	61.66516380674556	-7.000763165403951	61.67600249902183	0	0	0
355	1	1	62.386775179342706	-6.903927736921508	60.99051002880127	0	0	0
356	1	1	63.10838655193985	-6.261856129366334	60.73162573474313	0	0	0
357	1	1	63.829997924537	-6.1650207008838915	60.046133264522574	0	0	0
358	1	1	64.55160929713415	-5.522949093328718	59.78724897046444	0	0	0
359	1	1	65.2732206697313	-5.426113664846275	59.10175650024388	0	0	0
360	1	1	65.99483204232845	-4.784042057291101	58.842872206185746	0	0	0
361	1	1	66.7164434149256	-4.687206628808658	58.157379735965186	0	0	0
362	1	1	67.43805478752276	-4.0451350212534845	57.89849544190705	0	0	0
363	1	1	68.15966616011991	-3.948299592771041	57.21300297168649	0	0	0
364	1	1	68.88127753271706	-3.306227985215867	56.95411867762836	0	0	0
365	1	1	69.60288890531422	-3.2093925567334236	56.2686262074078	0	0	0
366	1	1	70.32450027791137	-2.5673209491782494	56.009741913349664	0	0	0
367	1	1	71.04611165050852	-2.470485520695806	55.324249443129105	0	0	0
368	1	1	71.76772302310567	-1.828413913140632	55.06536514907097	0	0	0
369	1	1	72.48933439570283	-1.7315784846581888	54.37987267885041	0	0	0
370	1	1	73.21094576829998	-1.0895068771030147	54.12098838479228	0	0	0
371	1	1	73.93255714089713	-0.9926714486205714	53.43549591457172	0	0	0
372	1	1	74.65416851349428	-0.35059984106539743	53.17661162051358	0	0	0
373	1	1	75.37577988609144	-0.2537644125829542	52.491119150293024	0	0	0
374	1	1	53.3895762902072	-12.088307016244478	68.06661509383133	0	0	0
375	1	1	53.77332524483459	-12.801488221653765	68.65322340273374	0	0	0
376	1	1	54.157074199461974	-12.650061126777894	69.564160598571	0	0	0
377	1	1	54.54082315408936	-13.36324233218718	70.1507689074734	0	0	0
378	1	1	54.924572108716745	-13.21181523731131	71.06170610331066	0	0	0
379	1	1	55.30832106334413	-13.924996442720596	71.64831441221307	0	0	0
380	1	1	55.69207001797152	-13.773569347844726	72.55925160805032	0	0	0
381	1	1	56.0758189725989	-14.486750553254012	73.14585991695273	0	0	0
382	1	1	56.45956792722629	-14.335323458378141	74.05679711278998	0	0	0
383	1	1	56.843316881853674	-15.048504663787428	74.64340542169239	0	0	0
384	1	1	57.22706583648106	-14.897077568911557	75.55434261752964	0	0	0
385	1	1	57.610814791108446	-15.610258774320844	76.14095092643205	0	0	0
386	1	1	57.99456374573583	-15.458831679444973	77.0518881222693	0	0	0
387	1	1	58.37831270036322	-16.17201288485426	77.63849643117172	0	0	0
388	1	1	58.7620616549906	-16.02058578997839	78.54943362700897	0	0	0
389	1	1	59.14581060961799	-16.73376699538768	79.13604193591138	0	0	0
390	1	1	59.529559564245375	-16.58233990051181	80.04697913174863	0	0	0
391	1	1	59.91330851887276	-17.295521105921097	80.63358744065104	0	0	0
392	1	1	60.297057473500146	-17.144094011045226	81.54452463648829	0	0	0
393	1	1	60.68080642812753	-17.857275216454514	82.1311329453907	0	0	0
394	1	1	61.06455538275492	-17.705848121578644	83.04207014122795	0	0	0
395	1	1	61.448304337382304	-18.419029326987932	83.62867845013037	0	0	0
396	1	1	61.83205329200969	-18.26760223211206	84.53961564596761	0	0	0
397	1	1	62.215802246637075	-18.98078343752135	85.12622395487003	0	0	0
398	1	1	62.59955120126446	-18.82935634264548	86.03716115070728	0	0	0
399	1	1	62.98330015589185	-19.542537548054767	86.62376945960969	0	0	0
400	1	1	63.36704911051923	-19.391110453178896	87.53470665544694	0	0	0
401	1	1	63.75079806514662	-20.104291658588185	88.12131496434935	0	0	0
402	1	1	64.134547019774	-19.952864563712314	89.0322521601866	0	0	0
403	1	1	64.5182959744014	-20.666045769121602	89.61886046908901	0	0	0
404	1	1	64.90204492902879	-20.51461867424573	90.52979766492626	0	0	0
405	1	1	64.21077501008017	-20.722153894282375	91.2219501276114	0	0	0
406	1	1	63.51950509113154	-21.24796089835667	91.71760413357036	0	0	0
407	1	1	62.828235172182914	-21.081615439745832	92.42079335956598	0	0	0
408	1	1	62.13696525323429	-21.607422443820127	92.91644736552495	0	0	0
409	1	1	61.44569533428566	-21.44107698520929	93.61963659152056	0	0	0
410	1	1	60.75442541533703	-21.966883989283584	94.11529059747953	0	0	0
411	1	1	60.063155496388404	-21.800538530672746	94.81847982347514	0	0	0
412	1	1	59.37188557743978	-22.32634553474704	95.31413382943411	0	0	0
413	1	1	58.68061565849115	-22.160000076136203	96.01732305542973	0	0	0
414	1	1	57.98934573954252	-22.6858070802105	96.5129770613887	0	0	0
415	1	1	57.298075820593894	-22.51946162159966	97.21616628738431	0	0	0
416	1	1	56.60680590164527	-23.045268625673955	97.71182029334328	0	0	0
417	1	1	55.91553598269664	-22.878923167063117	98.4150095193389	0	0	0
418	1	1	55.22426606374801	-23.404730171137412	98.91066352529786	0	0	0
419	1	1	54.532996144799384	-23.238384712526575	99.61385275129348	0	0	0
420	1	1	53.841726225850756	-23.76419171660087	100.10950675725245	0	0	0
421	1	1	53.15045630690213	-23.59784625799003	100.81269598324806	0	0	0
422	1	1	52.4591863879535	-24.123653262064327	101.30834998920703	0	0	0
423	1	1	51.767916469004874	-23.95730780345349	102.01153921520265	0	0	0
424	1	1	51.076646550056246	-24.483114807527784	102.50719322116161	0	0	0
425	1	1	50.38537663110762	-24.316769348916946	103.21038244715723	0	0	0
426	1	1	49.69410671215899	-24.84257635299124	103.7060364531162	0	0	0
427	1	1	49.00283679321036	-24.676230894380403	104.40922567911181	0	0	0
428	1	1	48.311566874261736	-25.202037898454698	104.90487968507078	0	0	0
429	1	1	47.62029695531311	-25.03569243984386	105.6080689110664	0	0	0
430	1	1	46.92902703636448	-25.561499443918155	106.10372291702537	0	0	0
431	1	1	46.23775711741585	-25.395153985307317	106.80691214302098	0	0	0
432	1	1	45.546487198467226	-25.920960989381612	107.30256614897995	0	0	0
433	1	1	44.8552172795186	-25.754615530770774	108.00575537497556	0	0	0
434	1	1	44.16394736056997	-26.28042253484507	108.50140938093453	0	0	0
435	1	1	43.47267744162134	-26.11407707623423	109.20459860693015	0	0	0
436	1	1	65.18533481838958	-19.55966332944025	90.61815561880364	0	0	0
437	1	1	65.46862470775037	-18.776826718297666	91.17215352389061	0	0	0
438	1	1	65.75191459711115	-17.9056321532777	90.7711960841721	0	0	0