bb337nuc5bl56bn4d30tot900V2

897 atoms
896 bonds
910 angles

1 atom types
1 bond types
1 angle types

-1000 1000 xlo xhi
-1000 1000 ylo yhi
-1000 1000 zlo zhi

Masses

1 1

Atoms

1	1	1	0.0	0.0	0.0	0	0	0
2	1	1	0.0	0.0	1.0	0	0	0
3	1	1	0.0	-0.49999999999999994	1.8660254037844388	0	0	0
4	1	1	0.0	0.0	2.7320508075688776	0	0	0
5	1	1	0.0	-0.49999999999999994	3.5980762113533165	0	0	0
6	1	1	0.0	0.0	4.464101615137755	0	0	0
7	1	1	0.0	-0.49999999999999994	5.330127018922194	0	0	0
8	1	1	0.0	0.0	6.196152422706632	0	0	0
9	1	1	0.0	-0.49999999999999994	7.06217782649107	0	0	0
10	1	1	0.0	0.0	7.928203230275509	0	0	0
11	1	1	0.0	-0.49999999999999994	8.794228634059948	0	0	0
12	1	1	0.0	0.0	9.660254037844387	0	0	0
13	1	1	0.0	-0.49999999999999994	10.526279441628827	0	0	0
14	1	1	0.0	0.0	11.392304845413266	0	0	0
15	1	1	0.0	-0.49999999999999994	12.258330249197705	0	0	0
16	1	1	0.0	0.0	13.124355652982144	0	0	0
17	1	1	0.0	-0.49999999999999994	13.990381056766584	0	0	0
18	1	1	0.0	0.0	14.856406460551023	0	0	0
19	1	1	0.0	-0.49999999999999994	15.722431864335462	0	0	0
20	1	1	0.0	0.0	16.5884572681199	0	0	0
21	1	1	0.0	-0.49999999999999994	17.454482671904337	0	0	0
22	1	1	0.0	0.0	18.320508075688775	0	0	0
23	1	1	0.0	-0.49999999999999994	19.186533479473212	0	0	0
24	1	1	0.0	0.0	20.05255888325765	0	0	0
25	1	1	0.0	-0.49999999999999994	20.918584287042087	0	0	0
26	1	1	0.0	0.0	21.784609690826525	0	0	0
27	1	1	0.0	-0.49999999999999994	22.650635094610962	0	0	0
28	1	1	0.0	0.0	23.5166604983954	0	0	0
29	1	1	0.0	-0.49999999999999994	24.382685902179837	0	0	0
30	1	1	0.0	0.0	25.248711305964274	0	0	0
31	1	1	0.0	-0.49999999999999994	26.114736709748712	0	0	0
32	1	1	0.0	0.0	26.98076211353315	0	0	0
33	1	1	0.0	-0.49999999999999994	27.846787517317587	0	0	0
34	1	1	0.0	0.0	28.712812921102024	0	0	0
35	1	1	0.0	-0.49999999999999994	29.578838324886462	0	0	0
36	1	1	0.0	0.0	30.4448637286709	0	0	0
37	1	1	0.0	-0.49999999999999994	31.310889132455337	0	0	0
38	1	1	0.0	0.0	32.17691453623978	0	0	0
39	1	1	0.0	-0.49999999999999994	33.04293994002422	0	0	0
40	1	1	0.0	0.0	33.90896534380866	0	0	0
41	1	1	0.0	-0.49999999999999994	34.7749907475931	0	0	0
42	1	1	0.0	0.0	35.64101615137754	0	0	0
43	1	1	0.0	-0.49999999999999994	36.50704155516198	0	0	0
44	1	1	0.0	0.0	37.373066958946424	0	0	0
45	1	1	0.0	-0.49999999999999994	38.239092362730865	0	0	0
46	1	1	0.0	0.0	39.105117766515306	0	0	0
47	1	1	0.0	-0.49999999999999994	39.97114317029975	0	0	0
48	1	1	0.0	0.0	40.83716857408419	0	0	0
49	1	1	0.0	-0.49999999999999994	41.70319397786863	0	0	0
50	1	1	0.0	0.0	42.56921938165307	0	0	0
51	1	1	0.0	-0.49999999999999994	43.43524478543751	0	0	0
52	1	1	0.0	0.0	44.30127018922195	0	0	0
53	1	1	0.0	-0.49999999999999994	45.16729559300639	0	0	0
54	1	1	0.0	0.0	46.033320996790835	0	0	0
55	1	1	0.0	-0.49999999999999994	46.899346400575276	0	0	0
56	1	1	0.0	0.0	47.76537180435972	0	0	0
57	1	1	0.0	-0.49999999999999994	48.63139720814416	0	0	0
58	1	1	-0.8434514116066298	-0.3023872808107527	49.130935924835285	0	0	0
59	1	1	-1.686902823213258	-0.381019004227508	49.662355503258304	0	0	0
60	1	1	-2.5303542348198858	0.03988798904686397	49.99616236249207	0	0	0
61	1	1	-3.373805646426514	-0.03874373436989133	50.52758194091509	0	0	0
62	1	1	-4.217257058033142	0.38216325890448066	50.86138880014886	0	0	0
63	1	1	-5.06070846963977	0.3035315354877254	51.39280837857188	0	0	0
64	1	1	-5.904159881246398	0.7244385287620974	51.726615237805646	0	0	0
65	1	1	-6.747611292853025	0.6458068053453421	52.258034816228665	0	0	0
66	1	1	-7.591062704459653	1.066713798619714	52.59184167546243	0	0	0
67	1	1	-8.434514116066282	0.9880820752029587	53.12326125388545	0	0	0
68	1	1	-9.27796552767291	1.4089890684773305	53.45706811311922	0	0	0
69	1	1	-10.121416939279538	1.3303573450605752	53.98848769154224	0	0	0
70	1	1	-10.964868350886166	1.751264338334947	54.32229455077601	0	0	0
71	1	1	-11.808319762492793	1.6726326149181918	54.85371412919903	0	0	0
72	1	1	-12.651771174099421	2.0935396081925637	55.187520988432794	0	0	0
73	1	1	-13.495222585706049	2.014907884775808	55.718940566855814	0	0	0
74	1	1	-14.338673997312677	2.4358148780501803	56.05274742608958	0	0	0
75	1	1	-15.182125408919305	2.3571831546334248	56.5841670045126	0	0	0
76	1	1	-16.025576820525934	2.778090147907797	56.91797386374637	0	0	0
77	1	1	-16.869028232132564	2.6994584244910413	57.44939344216939	0	0	0
78	1	1	-17.712479643739194	3.1203654177654134	57.783200301403156	0	0	0
79	1	1	-18.555931055345823	3.041733694348658	58.314619879826175	0	0	0
80	1	1	-19.399382466952453	3.46264068762303	58.64842673905994	0	0	0
81	1	1	-20.242833878559082	3.3840089642062745	59.17984631748296	0	0	0
82	1	1	-21.086285290165712	3.8049159574806466	59.51365317671673	0	0	0
83	1	1	-21.92973670177234	3.726284234063891	60.04507275513975	0	0	0
84	1	1	-22.77318811337897	4.147191227338263	60.37887961437352	0	0	0
85	1	1	-23.6166395249856	4.068559503921508	60.910299192796536	0	0	0
86	1	1	-24.46009093659223	4.489466497195879	61.244106052030304	0	0	0
87	1	1	-25.30354234819886	4.410834773779124	61.77552563045332	0	0	0
88	1	1	-26.14699375980549	4.8317417670534955	62.10933248968709	0	0	0
89	1	1	-26.99044517141212	4.75311004363674	62.64075206811011	0	0	0
90	1	1	-27.83389658301875	5.174017036911112	62.97455892734388	0	0	0
91	1	1	-28.67734799462538	5.095385313494356	63.5059785057669	0	0	0
92	1	1	-29.52079940623201	5.516292306768728	63.839785365000665	0	0	0
93	1	1	-30.364250817838638	5.437660583351972	64.37120494342368	0	0	0
94	1	1	-31.207702229445268	5.858567576626344	64.70501180265745	0	0	0
95	1	1	-32.0511536410519	5.779935853209588	65.23643138108046	0	0	0
96	1	1	-32.89460505265853	6.20084284648396	65.57023824031424	0	0	0
97	1	1	-33.738056464265156	6.1222111230672045	66.10165781873725	0	0	0
98	1	1	-34.581507875871786	6.543118116341576	66.43546467797103	0	0	0
99	1	1	-35.424959287478416	6.464486392924821	66.96688425639404	0	0	0
100	1	1	-36.268410699085045	6.885393386199192	67.30069111562781	0	0	0
101	1	1	-37.111862110691675	6.806761662782437	67.83211069405083	0	0	0
102	1	1	-37.955313522298304	7.227668656056808	68.1659175532846	0	0	0
103	1	1	-38.798764933904934	7.149036932640053	68.69733713170761	0	0	0
104	1	1	-39.642216345511564	7.5699439259144246	69.03114399094139	0	0	0
105	1	1	-40.48566775711819	7.491312202497669	69.5625635693644	0	0	0
106	1	1	-41.32911916872482	7.912219195772041	69.89637042859817	0	0	0
107	1	1	-42.17257058033145	7.833587472355285	70.42779000702119	0	0	0
108	1	1	-43.01602199193808	8.254494465629657	70.76159686625496	0	0	0
109	1	1	-43.85947340354471	8.175862742212901	71.29301644467797	0	0	0
110	1	1	-44.70292481515134	8.596769735487273	71.62682330391175	0	0	0
111	1	1	-45.54637622675797	8.518138012070517	72.15824288233476	0	0	0
112	1	1	-46.3898276383646	8.939045005344889	72.49204974156854	0	0	0
113	1	1	-47.23327904997123	8.860413281928134	73.02346931999155	0	0	0
114	1	1	0.7862418546094494	-0.2165729453149819	49.180480854534096	0	0	0
115	1	1	1.5724837092188972	-0.2456597390329251	49.797714768452884	0	0	0
116	1	1	2.358725563828345	0.27433711363907104	50.13152162768665	0	0	0
117	1	1	3.144967418437793	0.24525031992112784	50.74875554160544	0	0	0
118	1	1	3.9312092730472408	0.765247172593124	51.08256240083921	0	0	0
119	1	1	4.717451127656688	0.7361603788751808	51.699796314758	0	0	0
120	1	1	5.503692982266136	1.256157231547177	52.033603173991764	0	0	0
121	1	1	6.289934836875584	1.2270704378292339	52.65083708791055	0	0	0
122	1	1	7.076176691485031	1.74706729050123	52.98464394714432	0	0	0
123	1	1	7.862418546094479	1.717980496783287	53.60187786106311	0	0	0
124	1	1	8.648660400703926	2.2379773494552833	53.93568472029688	0	0	0
125	1	1	9.434902255313375	2.20889055573734	54.552918634215665	0	0	0
126	1	1	10.221144109922824	2.728887408409336	54.88672549344943	0	0	0
127	1	1	11.007385964532272	2.6998006146913927	55.50395940736822	0	0	0
128	1	1	11.79362781914172	3.2197974673633887	55.83776626660199	0	0	0
129	1	1	12.579869673751169	3.1907106736454454	56.45500018052078	0	0	0
130	1	1	13.366111528360618	3.7107075263174414	56.788807039754545	0	0	0
131	1	1	14.152353382970066	3.681620732599498	57.40604095367333	0	0	0
132	1	1	14.938595237579515	4.201617585271494	57.7398478129071	0	0	0
133	1	1	15.724837092188963	4.172530791553551	58.35708172682589	0	0	0
134	1	1	16.51107894679841	4.692527644225547	58.69088858605966	0	0	0
135	1	1	17.297320801407857	4.6634408505076035	59.308122499978445	0	0	0
136	1	1	18.083562656017303	5.1834377031795995	59.64192935921221	0	0	0
137	1	1	18.86980451062675	5.154350909461656	60.259163273131	0	0	0
138	1	1	19.656046365236197	5.674347762133652	60.59297013236477	0	0	0
139	1	1	20.442288219845643	5.645260968415709	61.21020404628356	0	0	0
140	1	1	21.22853007445509	6.165257821087705	61.544010905517325	0	0	0
141	1	1	22.014771929064537	6.136171027369762	62.161244819436114	0	0	0
142	1	1	22.801013783673984	6.656167880041758	62.49505167866988	0	0	0
143	1	1	23.58725563828343	6.627081086323814	63.11228559258867	0	0	0
144	1	1	24.373497492892877	7.14707793899581	63.44609245182244	0	0	0
145	1	1	25.159739347502324	7.117991145277867	64.06332636574122	0	0	0
146	1	1	25.94598120211177	7.637987997949863	64.397133224975	0	0	0
147	1	1	26.732223056721217	7.60890120423192	65.01436713889377	0	0	0
148	1	1	27.518464911330664	8.128898056903916	65.34817399812755	0	0	0
149	1	1	28.30470676594011	8.099811263185973	65.96540791204633	0	0	0
150	1	1	29.090948620549558	8.61980811585797	66.2992147712801	0	0	0
151	1	1	29.877190475159004	8.590721322140027	66.91644868519889	0	0	0
152	1	1	30.66343232976845	9.110718174812023	67.25025554443266	0	0	0
153	1	1	31.449674184377898	9.08163138109408	67.86748945835144	0	0	0
154	1	1	32.23591603898735	9.601628233766077	68.20129631758522	0	0	0
155	1	1	33.0221578935968	9.572541440048134	68.818530231504	0	0	0
156	1	1	33.80839974820625	10.09253829272013	69.15233709073777	0	0	0
157	1	1	34.5946416028157	10.063451499002188	69.76957100465656	0	0	0
158	1	1	35.38088345742515	10.583448351674184	70.10337786389033	0	0	0
159	1	1	36.1671253120346	10.554361557956241	70.72061177780911	0	0	0
160	1	1	36.95336716664405	11.074358410628237	71.05441863704289	0	0	0
161	1	1	37.7396090212535	11.045271616910295	71.67165255096167	0	0	0
162	1	1	38.52585087586295	11.565268469582291	72.00545941019544	0	0	0
163	1	1	39.3120927304724	11.536181675864349	72.62269332411422	0	0	0
164	1	1	40.09833458508185	12.056178528536345	72.956500183348	0	0	0
165	1	1	40.8845764396913	12.027091734818402	73.57373409726678	0	0	0
166	1	1	41.67081829430075	12.547088587490398	73.90754095650055	0	0	0
167	1	1	42.4570601489102	12.518001793772456	74.52477487041934	0	0	0
168	1	1	43.24330200351965	13.037998646444452	74.85858172965311	0	0	0
169	1	1	44.0295438581291	13.00891185272651	75.47581564357189	0	0	0
170	1	1	0.05720955699717456	-1.481750062724925	48.450030505224916	0	0	0
171	1	1	0.11441911399434901	-2.2412872057520534	47.80208730173376	0	0	0
172	1	1	0.17162867099152346	-3.182191051698424	48.13589416096754	0	0	0
173	1	1	0.2288382279886979	-3.9417281947255525	47.487950957476386	0	0	0
174	1	1	0.28604778498587236	-4.882632040671923	47.82175781671016	0	0	0
175	1	1	0.3432573419830468	-5.6421691836990515	47.17381461321901	0	0	0
176	1	1	0.40046689898022125	-6.583073029645422	47.50762147245278	0	0	0
177	1	1	0.4576764559773957	-7.342610172672551	46.85967826896163	0	0	0
178	1	1	0.5148860129745702	-8.283514018618922	47.193485128195405	0	0	0
179	1	1	0.5720955699717446	-9.04305116164605	46.54554192470425	0	0	0
180	1	1	0.629305126968919	-9.98395500759242	46.87934878393803	0	0	0
181	1	1	0.6865146839660935	-10.743492150619549	46.231405580446875	0	0	0
182	1	1	0.743724240963268	-11.68439599656592	46.56521243968065	0	0	0
183	1	1	0.8009337979604424	-12.443933139593048	45.9172692361895	0	0	0
184	1	1	0.8581433549576168	-13.384836985539419	46.25107609542327	0	0	0
185	1	1	0.9153529119547913	-14.144374128566547	45.60313289193212	0	0	0
186	1	1	0.9725624689519657	-15.085277974512918	45.936939751165895	0	0	0
187	1	1	1.02977202594914	-15.844815117540046	45.28899654767474	0	0	0
188	1	1	1.0869815829463145	-16.785718963486417	45.62280340690852	0	0	0
189	1	1	1.144191139943489	-17.545256106513545	44.974860203417364	0	0	0
190	1	1	1.2014006969406634	-18.486159952459914	45.30866706265114	0	0	0
191	1	1	1.2586102539378379	-19.245697095487042	44.66072385915999	0	0	0
192	1	1	1.3158198109350123	-20.18660094143341	44.99453071839376	0	0	0
193	1	1	1.3730293679321868	-20.94613808446054	44.34658751490261	0	0	0
194	1	1	1.4302389249293612	-21.88704193040691	44.680394374136384	0	0	0
195	1	1	1.4874484819265357	-22.646579073434037	44.03245117064523	0	0	0
196	1	1	1.5446580389237101	-23.587482919380406	44.366258029879006	0	0	0
197	1	1	1.6018675959208846	-24.347020062407534	43.718314826387854	0	0	0
198	1	1	1.659077152918059	-25.287923908353903	44.05212168562163	0	0	0
199	1	1	1.7162867099152335	-26.04746105138103	43.404178482130476	0	0	0
200	1	1	1.773496266912408	-26.9883648973274	43.73798534136425	0	0	0
201	1	1	1.8307058239095824	-27.74790204035453	43.0900421378731	0	0	0
202	1	1	1.8879153809067568	-28.688805886300898	43.42384899710687	0	0	0
203	1	1	1.9451249379039313	-29.448343029328026	42.77590579361572	0	0	0
204	1	1	2.0023344949011057	-30.389246875274395	43.109712652849495	0	0	0
205	1	1	2.05954405189828	-31.148784018301523	42.46176944935834	0	0	0
206	1	1	2.1167536088954546	-32.08968786424789	42.79557630859212	0	0	0
207	1	1	2.173963165892629	-32.849225007275024	42.147633105100965	0	0	0
208	1	1	2.2311727228898035	-33.7901288532214	42.48143996433474	0	0	0
209	1	1	2.288382279886978	-34.54966599624853	41.83349676084359	0	0	0
210	1	1	2.3455918368841524	-35.4905698421949	42.16730362007736	0	0	0
211	1	1	2.402801393881327	-36.25010698522203	41.51936041658621	0	0	0
212	1	1	2.4600109508785013	-37.191010831168406	41.853167275819985	0	0	0
213	1	1	2.5172205078756758	-37.95054797419554	41.20522407232883	0	0	0
214	1	1	2.57443006487285	-38.89145182014191	41.53903093156261	0	0	0
215	1	1	2.6316396218700246	-39.65098896316904	40.891087728071454	0	0	0
216	1	1	2.688849178867199	-40.591892809115414	41.22489458730523	0	0	0
217	1	1	2.7460587358643735	-41.351429952142546	40.57695138381408	0	0	0
218	1	1	2.803268292861548	-42.29233379808892	40.91075824304785	0	0	0
219	1	1	2.8604778498587224	-43.05187094111605	40.2628150395567	0	0	0
220	1	1	2.917687406855897	-43.99277478706242	40.596621898790474	0	0	0
221	1	1	2.9748969638530713	-44.752311930089554	39.94867869529932	0	0	0
222	1	1	3.032106520850246	-45.69321577603593	40.282485554533096	0	0	0
223	1	1	3.0893160778474202	-46.45275291906306	39.634542351041944	0	0	0
224	1	1	3.1465256348445947	-47.39365676500943	39.96834921027572	0	0	0
225	1	1	3.203735191841769	-48.15319390803656	39.320406006784566	0	0	0
226	1	1	3.9026611067865487	-47.95405069149747	38.63349659155933	0	0	0
227	1	1	4.6015870217313255	-47.43813289937066	38.13818719614511	0	0	0
228	1	1	5.300512936676102	-47.609124522469074	37.4437345841918	0	0	0
229	1	1	5.999438851620879	-47.09320673034226	36.948425188777584	0	0	0
230	1	1	6.698364766565656	-47.264198353440676	36.253972576824275	0	0	0
231	1	1	7.397290681510433	-46.74828056131386	35.75866318141006	0	0	0
232	1	1	8.09621659645521	-46.91927218441228	35.06421056945675	0	0	0
233	1	1	8.795142511399987	-46.403354392285465	34.56890117404253	0	0	0
234	1	1	9.494068426344764	-46.57434601538388	33.87444856208922	0	0	0
235	1	1	10.192994341289541	-46.05842822325707	33.379139166675	0	0	0
236	1	1	10.891920256234318	-46.22941984635548	32.684686554721694	0	0	0
237	1	1	11.590846171179095	-45.71350205422867	32.189377159307476	0	0	0
238	1	1	12.289772086123872	-45.884493677327086	31.494924547354167	0	0	0
239	1	1	12.988698001068649	-45.36857588520027	30.99961515193995	0	0	0
240	1	1	13.687623916013425	-45.53956750829869	30.30516253998664	0	0	0
241	1	1	14.386549830958202	-45.023649716171875	29.809853144572422	0	0	0
242	1	1	15.08547574590298	-45.19464133927029	29.115400532619113	0	0	0
243	1	1	15.784401660847756	-44.67872354714348	28.620091137204895	0	0	0
244	1	1	16.483327575792533	-44.84971517024189	27.925638525251586	0	0	0
245	1	1	17.18225349073731	-44.33379737811508	27.430329129837368	0	0	0
246	1	1	17.881179405682087	-44.504789001213496	26.73587651788406	0	0	0
247	1	1	18.580105320626863	-43.98887120908668	26.24056712246984	0	0	0
248	1	1	19.27903123557164	-44.1598628321851	25.54611451051653	0	0	0
249	1	1	19.977957150516417	-43.643945040058284	25.050805115102314	0	0	0
250	1	1	20.676883065461194	-43.8149366631567	24.356352503149004	0	0	0
251	1	1	21.37580898040597	-43.29901887102989	23.861043107734787	0	0	0
252	1	1	22.074734895350748	-43.4700104941283	23.166590495781477	0	0	0
253	1	1	22.773660810295524	-42.95409270200149	22.67128110036726	0	0	0
254	1	1	23.4725867252403	-43.125084325099905	21.97682848841395	0	0	0
255	1	1	24.171512640185078	-42.60916653297309	21.481519092999733	0	0	0
256	1	1	24.870438555129855	-42.78015815607151	20.787066481046423	0	0	0
257	1	1	25.569364470074632	-42.264240363944694	20.291757085632206	0	0	0
258	1	1	26.26829038501941	-42.43523198704311	19.597304473678896	0	0	0
259	1	1	26.967216299964186	-41.919314194916296	19.10199507826468	0	0	0
260	1	1	27.666142214908962	-42.09030581801471	18.40754246631137	0	0	0
261	1	1	28.36506812985374	-41.5743880258879	17.912233070897152	0	0	0
262	1	1	29.063994044798516	-41.745379648986315	17.217780458943842	0	0	0
263	1	1	29.762919959743293	-41.2294618568595	16.722471063529625	0	0	0
264	1	1	30.46184587468807	-41.40045347995792	16.028018451576315	0	0	0
265	1	1	31.160771789632847	-40.884535687831104	15.532709056162096	0	0	0
266	1	1	31.859697704577624	-41.05552731092952	14.838256444208785	0	0	0
267	1	1	32.5586236195224	-40.539609518802706	14.342947048794565	0	0	0
268	1	1	33.257549534467174	-40.71060114190112	13.648494436841254	0	0	0
269	1	1	33.956475449411954	-40.19468334977431	13.153185041427035	0	0	0
270	1	1	34.655401364356734	-40.365674972872725	12.458732429473724	0	0	0
271	1	1	35.354327279301515	-39.84975718074591	11.963423034059504	0	0	0
272	1	1	36.053253194246295	-40.02074880384433	11.268970422106193	0	0	0
273	1	1	36.752179109191076	-39.50483101171751	10.773661026691974	0	0	0
274	1	1	37.451105024135856	-39.67582263481593	10.079208414738662	0	0	0
275	1	1	38.15003093908064	-39.159904842689116	9.583899019324443	0	0	0
276	1	1	38.84895685402542	-39.33089646578753	8.889446407371132	0	0	0
277	1	1	39.5478827689702	-38.81497867366072	8.394137011956913	0	0	0
278	1	1	40.24680868391498	-38.985970296759135	7.699684400003602	0	0	0
279	1	1	40.94573459885976	-38.47005250463232	7.204375004589383	0	0	0
280	1	1	41.64466051380454	-38.64104412773074	6.5099223926360725	0	0	0
281	1	1	42.34358642874932	-38.12512633560392	6.014612997221853	0	0	0
282	1	1	2.319337146735277	-48.27491447218007	38.86982393648393	0	0	0
283	1	1	1.4349391016287876	-48.15503653774101	38.418748135042044	0	0	0
284	1	1	0.5505410565222982	-48.485740673602585	38.089392897743664	0	0	0
285	1	1	-0.3338569885841911	-48.365862739163525	37.638317096301776	0	0	0
286	1	1	-1.2182550336906806	-48.6965668750251	37.3089618590034	0	0	0
287	1	1	-2.10265307879717	-48.57668894058604	36.85788605756151	0	0	0
288	1	1	-2.987051123903659	-48.90739307644761	36.52853082026313	0	0	0
289	1	1	-3.8714491690101482	-48.78751514200855	36.07745501882124	0	0	0
290	1	1	-4.7558472141166375	-49.118219277870125	35.74809978152286	0	0	0
291	1	1	-5.640245259223127	-48.998341343431065	35.29702398008097	0	0	0
292	1	1	-6.524643304329616	-49.32904547929264	34.96766874278259	0	0	0
293	1	1	-7.409041349436105	-49.20916754485358	34.516592941340704	0	0	0
294	1	1	-8.293439394542595	-49.53987168071515	34.187237704042325	0	0	0
295	1	1	-9.177837439649085	-49.41999374627609	33.736161902600436	0	0	0
296	1	1	-10.062235484755575	-49.750697882137665	33.40680666530206	0	0	0
297	1	1	-10.946633529862066	-49.630819947698605	32.95573086386017	0	0	0
298	1	1	-11.831031574968556	-49.96152408356018	32.62637562656179	0	0	0
299	1	1	-12.715429620075046	-49.84164614912112	32.1752998251199	0	0	0
300	1	1	-13.599827665181536	-50.17235028498269	31.84594458782152	0	0	0
301	1	1	-14.484225710288026	-50.05247235054363	31.39486878637963	0	0	0
302	1	1	-15.368623755394516	-50.383176486405205	31.06551354908125	0	0	0
303	1	1	-16.253021800501006	-50.263298551966145	30.614437747639357	0	0	0
304	1	1	-17.137419845607496	-50.59400268782772	30.285082510340978	0	0	0
305	1	1	-18.021817890713987	-50.47412475338866	29.834006708899086	0	0	0
306	1	1	-18.906215935820477	-50.80482888925023	29.504651471600706	0	0	0
307	1	1	-19.790613980926967	-50.68495095481117	29.053575670158814	0	0	0
308	1	1	-20.675012026033457	-51.015655090672745	28.724220432860434	0	0	0
309	1	1	-21.559410071139947	-50.895777156233684	28.273144631418543	0	0	0
310	1	1	-22.443808116246437	-51.22648129209526	27.943789394120163	0	0	0
311	1	1	-23.328206161352927	-51.1066033576562	27.49271359267827	0	0	0
312	1	1	-24.212604206459417	-51.43730749351777	27.16335835537989	0	0	0
313	1	1	-25.097002251565907	-51.31742955907871	26.712282553938	0	0	0
314	1	1	-25.981400296672398	-51.648133694940284	26.38292731663962	0	0	0
315	1	1	-26.865798341778888	-51.528255760501224	25.931851515197728	0	0	0
316	1	1	-27.750196386885378	-51.8589598963628	25.60249627789935	0	0	0
317	1	1	-28.634594431991868	-51.73908196192374	25.151420476457456	0	0	0
318	1	1	-29.518992477098358	-52.06978609778531	24.822065239159077	0	0	0
319	1	1	-30.403390522204848	-51.94990816334625	24.370989437717185	0	0	0
320	1	1	-31.28778856731134	-52.280612299207824	24.041634200418805	0	0	0
321	1	1	-32.172186612417825	-52.160734364768764	23.590558398976913	0	0	0
322	1	1	-33.05658465752431	-52.49143850063034	23.261203161678534	0	0	0
323	1	1	-33.9409827026308	-52.37156056619128	22.810127360236642	0	0	0
324	1	1	-34.825380747737285	-52.70226470205285	22.480772122938262	0	0	0
325	1	1	-35.70977879284377	-52.58238676761379	22.02969632149637	0	0	0
326	1	1	-36.59417683795026	-52.913090903475364	21.70034108419799	0	0	0
327	1	1	-37.478574883056744	-52.793212969036304	21.2492652827561	0	0	0
328	1	1	-38.36297292816323	-53.12391710489788	20.91991004545772	0	0	0
329	1	1	-39.24737097326972	-53.00403917045882	20.468834244015827	0	0	0
330	1	1	-40.131769018376204	-53.33474330632039	20.139479006717448	0	0	0
331	1	1	-41.01616706348269	-53.21486537188133	19.688403205275556	0	0	0
332	1	1	-41.90056510858918	-53.545569507742904	19.359047967977176	0	0	0
333	1	1	-42.784963153695664	-53.425691573303844	18.907972166535284	0	0	0
334	1	1	-43.66936119880215	-53.75639570916542	18.578616929236905	0	0	0
335	1	1	-44.55375924390864	-53.63651777472636	18.127541127795013	0	0	0
336	1	1	-45.43815728901512	-53.96722191058793	17.798185890496633	0	0	0
337	1	1	-46.32255533412161	-53.84734397614887	17.34711008905474	0	0	0
338	1	1	3.44649814962164	-48.99123268498798	39.80903383515269	0	0	0
339	1	1	3.68926110740151	-49.9613094693684	39.8131785590398	0	0	0
340	1	1	3.93202406518138	-50.44275842538071	40.65536205987832	0	0	0
341	1	1	4.17478702296125	-51.412835209761134	40.65950678376543	0	0	0
342	1	1	4.41754998074112	-51.89428416577344	41.50169028460395	0	0	0
343	1	1	4.660312938520989	-52.864360950153866	41.50583500849106	0	0	0
344	1	1	4.903075896300859	-53.345809906166174	42.348018509329584	0	0	0
345	1	1	5.145838854080728	-54.3158866905466	42.35216323321669	0	0	0
346	1	1	5.388601811860598	-54.797335646558906	43.194346734055216	0	0	0
347	1	1	5.631364769640467	-55.76741243093933	43.198491457942325	0	0	0
348	1	1	5.874127727420337	-56.24886138695164	44.04067495878085	0	0	0
349	1	1	6.1168906852002065	-57.21893817133206	44.044819682667956	0	0	0
350	1	1	6.359653642980076	-57.70038712734437	44.88700318350648	0	0	0
351	1	1	6.602416600759946	-58.670463911724795	44.89114790739359	0	0	0
352	1	1	6.845179558539815	-59.1519128677371	45.73333140823211	0	0	0
353	1	1	7.087942516319685	-60.12198965211753	45.73747613211922	0	0	0
354	1	1	7.330705474099554	-60.603438608129835	46.57965963295774	0	0	0
355	1	1	7.573468431879424	-61.57351539251026	46.58380435684485	0	0	0
356	1	1	7.816231389659293	-62.05496434852257	47.425987857683374	0	0	0
357	1	1	8.058994347439164	-63.02504113290299	47.43013258157048	0	0	0
358	1	1	8.301757305219034	-63.5064900889153	48.272316082409006	0	0	0
359	1	1	8.544520262998905	-64.47656687329572	48.276460806296114	0	0	0
360	1	1	8.787283220778775	-64.95801582930802	49.11864430713464	0	0	0
361	1	1	9.030046178558646	-65.92809261368845	49.122789031021746	0	0	0
362	1	1	9.272809136338516	-66.40954156970075	49.96497253186027	0	0	0
363	1	1	9.515572094118387	-67.37961835408117	49.96911725574738	0	0	0
364	1	1	9.758335051898257	-67.86106731009347	50.8113007565859	0	0	0
365	1	1	10.001098009678127	-68.8311440944739	50.81544548047301	0	0	0
366	1	1	10.243860967457998	-69.3125930504862	51.65762898131153	0	0	0
367	1	1	10.486623925237868	-70.28266983486662	51.66177370519864	0	0	0
368	1	1	10.729386883017739	-70.76411879087892	52.503957206037164	0	0	0
369	1	1	10.97214984079761	-71.73419557525935	52.50810192992427	0	0	0
370	1	1	11.21491279857748	-72.21564453127165	53.350285430762796	0	0	0
371	1	1	11.45767575635735	-73.18572131565207	53.354430154649904	0	0	0
372	1	1	11.70043871413722	-73.66717027166438	54.19661365548843	0	0	0
373	1	1	11.943201671917091	-74.6372470560448	54.200758379375536	0	0	0
374	1	1	12.185964629696961	-75.1186960120571	55.04294188021406	0	0	0
375	1	1	12.428727587476832	-76.08877279643752	55.04708660410117	0	0	0
376	1	1	12.671490545256702	-76.57022175244983	55.88927010493969	0	0	0
377	1	1	12.914253503036573	-77.54029853683025	55.8934148288268	0	0	0
378	1	1	13.157016460816443	-78.02174749284255	56.73559832966532	0	0	0
379	1	1	13.399779418596314	-78.99182427722297	56.73974305355243	0	0	0
380	1	1	13.642542376376184	-79.47327323323528	57.581926554390954	0	0	0
381	1	1	13.885305334156055	-80.4433500176157	57.58607127827806	0	0	0
382	1	1	14.128068291935925	-80.924798973628	58.428254779116585	0	0	0
383	1	1	14.370831249715796	-81.89487575800842	58.432399503003694	0	0	0
384	1	1	14.613594207495666	-82.37632471402073	59.27458300384222	0	0	0
385	1	1	14.856357165275536	-83.34640149840115	59.278727727729326	0	0	0
386	1	1	15.099120123055407	-83.82785045441345	60.12091122856785	0	0	0
387	1	1	15.341883080835277	-84.79792723879387	60.12505595245496	0	0	0
388	1	1	15.584646038615148	-85.27937619480618	60.96723945329348	0	0	0
389	1	1	15.827408996395018	-86.2494529791866	60.97138417718059	0	0	0
390	1	1	16.07017195417489	-86.7309019351989	61.81356767801911	0	0	0
391	1	1	16.31293491195476	-87.70097871957933	61.81771240190622	0	0	0
392	1	1	16.55569786973463	-88.18242767559163	62.65989590274474	0	0	0
393	1	1	16.7984608275145	-89.15250445997205	62.66404062663185	0	0	0
394	1	1	16.305872458106023	-89.62300686499754	61.93193121869563	0	0	0
395	1	1	15.813284088697545	-89.66441919632318	61.06265467056053	0	0	0
396	1	1	15.320695719289066	-90.43794093558505	60.66388052745093	0	0	0
397	1	1	14.828107349880588	-90.47935326691069	59.79460397931583	0	0	0
398	1	1	14.33551898047211	-91.25287500617256	59.395829836206225	0	0	0
399	1	1	13.84293061106363	-91.2942873374982	58.52655328807113	0	0	0
400	1	1	13.350342241655152	-92.06780907676007	58.12777914496152	0	0	0
401	1	1	12.857753872246674	-92.10922140808572	57.258502596826425	0	0	0
402	1	1	12.365165502838195	-92.88274314734758	56.85972845371682	0	0	0
403	1	1	11.872577133429717	-92.92415547867323	55.99045190558172	0	0	0
404	1	1	11.379988764021238	-93.6976772179351	55.591677762472116	0	0	0
405	1	1	10.88740039461276	-93.73908954926074	54.72240121433702	0	0	0
406	1	1	10.394812025204281	-94.5126112885226	54.32362707122741	0	0	0
407	1	1	9.902223655795803	-94.55402361984825	53.454350523092316	0	0	0
408	1	1	9.409635286387324	-95.32754535911012	53.05557637998271	0	0	0
409	1	1	8.917046916978846	-95.36895769043576	52.18629983184761	0	0	0
410	1	1	8.424458547570367	-96.14247942969763	51.78752568873801	0	0	0
411	1	1	7.931870178161889	-96.18389176102328	50.91824914060291	0	0	0
412	1	1	7.43928180875341	-96.95741350028514	50.519474997493305	0	0	0
413	1	1	6.946693439344932	-96.99882583161079	49.65019844935821	0	0	0
414	1	1	6.454105069936453	-97.77234757087265	49.2514243062486	0	0	0
415	1	1	5.961516700527975	-97.8137599021983	48.382147758113504	0	0	0
416	1	1	5.468928331119496	-98.58728164146017	47.9833736150039	0	0	0
417	1	1	4.976339961711018	-98.62869397278581	47.1140970668688	0	0	0
418	1	1	4.483751592302539	-99.40221571204768	46.715322923759196	0	0	0
419	1	1	3.9911632228940612	-99.44362804337332	45.8460463756241	0	0	0
420	1	1	3.498574853485583	-100.21714978263519	45.44727223251449	0	0	0
421	1	1	3.005986484077105	-100.25856211396083	44.577995684379395	0	0	0
422	1	1	2.513398114668627	-101.0320838532227	44.17922154126979	0	0	0
423	1	1	2.020809745260149	-101.07349618454835	43.30994499313469	0	0	0
424	1	1	1.528221375851671	-101.84701792381021	42.91117085002509	0	0	0
425	1	1	1.035633006443193	-101.88843025513586	42.04189430188999	0	0	0
426	1	1	0.5430446370347148	-102.66195199439773	41.643120158780384	0	0	0
427	1	1	0.05045626762623673	-102.70336432572337	40.77384361064529	0	0	0
428	1	1	-0.4421321017822414	-103.47688606498524	40.37506946753568	0	0	0
429	1	1	-0.9347204711907195	-103.51829839631088	39.505792919400584	0	0	0
430	1	1	-1.4273088405991976	-104.29182013557275	39.10701877629098	0	0	0
431	1	1	-1.9198972100076757	-104.3332324668984	38.23774222815588	0	0	0
432	1	1	-2.412485579416154	-105.10675420616026	37.838968085046275	0	0	0
433	1	1	-2.905073948824632	-105.1481665374859	36.96969153691118	0	0	0
434	1	1	-3.39766231823311	-105.92168827674777	36.57091739380157	0	0	0
435	1	1	-3.890250687641588	-105.96310060807342	35.701640845666475	0	0	0
436	1	1	-4.382839057050067	-106.73662234733528	35.30286670255687	0	0	0
437	1	1	-4.875427426458545	-106.77803467866093	34.43359015442177	0	0	0
438	1	1	-5.368015795867024	-107.5515564179228	34.03481601131217	0	0	0
439	1	1	-5.860604165275502	-107.59296874924844	33.16553946317707	0	0	0
440	1	1	-6.353192534683981	-108.36649048851031	32.766765320067464	0	0	0
441	1	1	-6.845780904092459	-108.40790281983595	31.897488771932366	0	0	0
442	1	1	-7.338369273500938	-109.18142455909782	31.49871462882276	0	0	0
443	1	1	-7.830957642909416	-109.22283689042347	30.629438080687663	0	0	0
444	1	1	-8.323546012317895	-109.99635862968533	30.230663937578058	0	0	0
445	1	1	-8.816134381726373	-110.03777096101098	29.36138738944296	0	0	0