bb450nuc5bl75bn4d30tot1200V2

1201 atoms
1200 bonds
1214 angles

1 atom types
1 bond types
1 angle types

-1000 1000 xlo xhi
-1000 1000 ylo yhi
-1000 1000 zlo zhi

Masses

1 1

Atoms

1	1	1	0.0	0.0	0.0	0	0	0
2	1	1	0.0	0.0	1.0	0	0	0
3	1	1	0.0	-0.49999999999999994	1.8660254037844388	0	0	0
4	1	1	0.0	0.0	2.7320508075688776	0	0	0
5	1	1	0.0	-0.49999999999999994	3.5980762113533165	0	0	0
6	1	1	0.0	0.0	4.464101615137755	0	0	0
7	1	1	0.0	-0.49999999999999994	5.330127018922194	0	0	0
8	1	1	0.0	0.0	6.196152422706632	0	0	0
9	1	1	0.0	-0.49999999999999994	7.06217782649107	0	0	0
10	1	1	0.0	0.0	7.928203230275509	0	0	0
11	1	1	0.0	-0.49999999999999994	8.794228634059948	0	0	0
12	1	1	0.0	0.0	9.660254037844387	0	0	0
13	1	1	0.0	-0.49999999999999994	10.526279441628827	0	0	0
14	1	1	0.0	0.0	11.392304845413266	0	0	0
15	1	1	0.0	-0.49999999999999994	12.258330249197705	0	0	0
16	1	1	0.0	0.0	13.124355652982144	0	0	0
17	1	1	0.0	-0.49999999999999994	13.990381056766584	0	0	0
18	1	1	0.0	0.0	14.856406460551023	0	0	0
19	1	1	0.0	-0.49999999999999994	15.722431864335462	0	0	0
20	1	1	0.0	0.0	16.5884572681199	0	0	0
21	1	1	0.0	-0.49999999999999994	17.454482671904337	0	0	0
22	1	1	0.0	0.0	18.320508075688775	0	0	0
23	1	1	0.0	-0.49999999999999994	19.186533479473212	0	0	0
24	1	1	0.0	0.0	20.05255888325765	0	0	0
25	1	1	0.0	-0.49999999999999994	20.918584287042087	0	0	0
26	1	1	0.0	0.0	21.784609690826525	0	0	0
27	1	1	0.0	-0.49999999999999994	22.650635094610962	0	0	0
28	1	1	0.0	0.0	23.5166604983954	0	0	0
29	1	1	0.0	-0.49999999999999994	24.382685902179837	0	0	0
30	1	1	0.0	0.0	25.248711305964274	0	0	0
31	1	1	0.0	-0.49999999999999994	26.114736709748712	0	0	0
32	1	1	0.0	0.0	26.98076211353315	0	0	0
33	1	1	0.0	-0.49999999999999994	27.846787517317587	0	0	0
34	1	1	0.0	0.0	28.712812921102024	0	0	0
35	1	1	0.0	-0.49999999999999994	29.578838324886462	0	0	0
36	1	1	0.0	0.0	30.4448637286709	0	0	0
37	1	1	0.0	-0.49999999999999994	31.310889132455337	0	0	0
38	1	1	0.0	0.0	32.17691453623978	0	0	0
39	1	1	0.0	-0.49999999999999994	33.04293994002422	0	0	0
40	1	1	0.0	0.0	33.90896534380866	0	0	0
41	1	1	0.0	-0.49999999999999994	34.7749907475931	0	0	0
42	1	1	0.0	0.0	35.64101615137754	0	0	0
43	1	1	0.0	-0.49999999999999994	36.50704155516198	0	0	0
44	1	1	0.0	0.0	37.373066958946424	0	0	0
45	1	1	0.0	-0.49999999999999994	38.239092362730865	0	0	0
46	1	1	0.0	0.0	39.105117766515306	0	0	0
47	1	1	0.0	-0.49999999999999994	39.97114317029975	0	0	0
48	1	1	0.0	0.0	40.83716857408419	0	0	0
49	1	1	0.0	-0.49999999999999994	41.70319397786863	0	0	0
50	1	1	0.0	0.0	42.56921938165307	0	0	0
51	1	1	0.0	-0.49999999999999994	43.43524478543751	0	0	0
52	1	1	0.0	0.0	44.30127018922195	0	0	0
53	1	1	0.0	-0.49999999999999994	45.16729559300639	0	0	0
54	1	1	0.0	0.0	46.033320996790835	0	0	0
55	1	1	0.0	-0.49999999999999994	46.899346400575276	0	0	0
56	1	1	0.0	0.0	47.76537180435972	0	0	0
57	1	1	0.0	-0.49999999999999994	48.63139720814416	0	0	0
58	1	1	0.0	0.0	49.4974226119286	0	0	0
59	1	1	0.0	-0.49999999999999994	50.36344801571304	0	0	0
60	1	1	0.0	0.0	51.22947341949748	0	0	0
61	1	1	0.0	-0.49999999999999994	52.09549882328192	0	0	0
62	1	1	0.0	0.0	52.96152422706636	0	0	0
63	1	1	0.0	-0.49999999999999994	53.827549630850804	0	0	0
64	1	1	0.0	0.0	54.693575034635245	0	0	0
65	1	1	0.0	-0.49999999999999994	55.559600438419686	0	0	0
66	1	1	0.0	0.0	56.42562584220413	0	0	0
67	1	1	0.0	-0.49999999999999994	57.29165124598857	0	0	0
68	1	1	0.0	0.0	58.15767664977301	0	0	0
69	1	1	0.0	-0.49999999999999994	59.02370205355745	0	0	0
70	1	1	0.0	0.0	59.88972745734189	0	0	0
71	1	1	0.0	-0.49999999999999994	60.75575286112633	0	0	0
72	1	1	0.0	0.0	61.62177826491077	0	0	0
73	1	1	0.0	-0.49999999999999994	62.487803668695214	0	0	0
74	1	1	0.0	0.0	63.353829072479655	0	0	0
75	1	1	0.0	-0.49999999999999994	64.21985447626409	0	0	0
76	1	1	0.0	0.0	65.08587988004852	0	0	0
77	1	1	-0.18409723631680963	-0.6337281281122249	65.83720994547907	0	0	0
78	1	1	-0.36819447263362	-1.5582178188654514	66.17101680471285	0	0	0
79	1	1	-0.5522917089504303	-1.7313774441881213	67.13855179205885	0	0	0
80	1	1	-0.7363889452672407	-2.655867134941348	67.47235865129262	0	0	0
81	1	1	-0.920486181584051	-2.829026760264018	68.43989363863862	0	0	0
82	1	1	-1.1045834179008613	-3.7535164510172443	68.7737004978724	0	0	0
83	1	1	-1.2886806542176716	-3.926676076339914	69.7412354852184	0	0	0
84	1	1	-1.472777890534482	-4.851165767093141	70.07504234445217	0	0	0
85	1	1	-1.6568751268512922	-5.024325392415811	71.04257733179817	0	0	0
86	1	1	-1.8409723631681025	-5.948815083169038	71.37638419103195	0	0	0
87	1	1	-2.025069599484913	-6.121974708491708	72.34391917837794	0	0	0
88	1	1	-2.2091668358017236	-7.046464399244934	72.67772603761172	0	0	0
89	1	1	-2.393264072118534	-7.219624024567604	73.64526102495772	0	0	0
90	1	1	-2.5773613084353446	-8.144113715320831	73.9790678841915	0	0	0
91	1	1	-2.761458544752155	-8.317273340643501	74.9466028715375	0	0	0
92	1	1	-2.9455557810689657	-9.241763031396728	75.28040973077127	0	0	0
93	1	1	-3.129653017385776	-9.414922656719398	76.24794471811727	0	0	0
94	1	1	-3.3137502537025867	-10.339412347472624	76.58175157735104	0	0	0
95	1	1	-3.497847490019397	-10.512571972795294	77.54928656469704	0	0	0
96	1	1	-3.6819447263362077	-11.437061663548521	77.88309342393082	0	0	0
97	1	1	-3.8660419626530182	-11.610221288871191	78.85062841127682	0	0	0
98	1	1	-4.050139198969829	-12.534710979624418	79.18443527051059	0	0	0
99	1	1	-4.234236435286639	-12.707870604947088	80.15197025785659	0	0	0
100	1	1	-4.418333671603449	-13.632360295700314	80.48577711709036	0	0	0
101	1	1	-4.602430907920259	-13.805519921022984	81.45331210443636	0	0	0
102	1	1	-4.786528144237069	-14.730009611776211	81.78711896367014	0	0	0
103	1	1	-4.970625380553879	-14.903169237098881	82.75465395101614	0	0	0
104	1	1	-5.154722616870689	-15.827658927852108	83.08846081024991	0	0	0
105	1	1	-5.338819853187499	-16.000818553174778	84.05599579759591	0	0	0
106	1	1	-5.522917089504309	-16.925308243928004	84.38980265682969	0	0	0
107	1	1	-5.7070143258211194	-17.098467869250673	85.35733764417569	0	0	0
108	1	1	-5.8911115621379295	-18.0229575600039	85.69114450340946	0	0	0
109	1	1	-6.07520879845474	-18.196117185326568	86.65867949075546	0	0	0
110	1	1	-6.25930603477155	-19.120606876079794	86.99248634998924	0	0	0
111	1	1	-6.44340327108836	-19.293766501402462	87.96002133733523	0	0	0
112	1	1	-6.62750050740517	-20.21825619215569	88.29382819656901	0	0	0
113	1	1	-6.81159774372198	-20.391415817478357	89.26136318391501	0	0	0
114	1	1	-6.99569498003879	-21.315905508231584	89.59517004314878	0	0	0
115	1	1	-7.1797922163556	-21.489065133554252	90.56270503049478	0	0	0
116	1	1	-7.36388945267241	-22.41355482430748	90.89651188972856	0	0	0
117	1	1	-7.54798668898922	-22.586714449630147	91.86404687707456	0	0	0
118	1	1	-7.73208392530603	-23.511204140383374	92.19785373630833	0	0	0
119	1	1	-7.91618116162284	-23.684363765706042	93.16538872365433	0	0	0
120	1	1	-8.10027839793965	-24.60885345645927	93.4991955828881	0	0	0
121	1	1	-8.284375634256461	-24.782013081781937	94.4667305702341	0	0	0
122	1	1	-8.468472870573272	-25.706502772535163	94.80053742946788	0	0	0
123	1	1	-8.652570106890083	-25.87966239785783	95.76807241681388	0	0	0
124	1	1	-8.836667343206894	-26.80415208861106	96.10187927604765	0	0	0
125	1	1	-9.020764579523705	-26.977311713933727	97.06941426339365	0	0	0
126	1	1	-9.204861815840516	-27.901801404686953	97.40322112262743	0	0	0
127	1	1	-9.388959052157327	-28.07496103000962	98.37075610997343	0	0	0
128	1	1	-9.573056288474138	-28.999450720762848	98.7045629692072	0	0	0
129	1	1	-9.757153524790949	-29.172610346085516	99.6720979565532	0	0	0
130	1	1	-9.94125076110776	-30.097100036838743	100.00590481578698	0	0	0
131	1	1	-10.125347997424571	-30.27025966216141	100.97343980313298	0	0	0
132	1	1	-10.309445233741382	-31.194749352914638	101.30724666236675	0	0	0
133	1	1	-10.493542470058193	-31.367908978237306	102.27478164971275	0	0	0
134	1	1	-10.677639706375004	-32.292398668990536	102.60858850894653	0	0	0
135	1	1	-10.861736942691815	-32.465558294313205	103.57612349629252	0	0	0
136	1	1	-11.045834179008626	-33.39004798506643	103.9099303555263	0	0	0
137	1	1	-11.229931415325437	-33.5632076103891	104.8774653428723	0	0	0
138	1	1	-11.414028651642248	-34.487697301142326	105.21127220210607	0	0	0
139	1	1	-11.598125887959059	-34.660856926464994	106.17880718945207	0	0	0
140	1	1	-11.78222312427587	-35.58534661721822	106.51261404868585	0	0	0
141	1	1	-11.96632036059268	-35.75850624254089	107.48014903603185	0	0	0
142	1	1	-12.150417596909492	-36.682995933294116	107.81395589526562	0	0	0
143	1	1	-12.334514833226303	-36.856155558616784	108.78149088261162	0	0	0
144	1	1	-12.518612069543114	-37.78064524937001	109.1152977418454	0	0	0
145	1	1	-12.702709305859925	-37.95380487469268	110.0828327291914	0	0	0
146	1	1	-12.886806542176735	-38.878294565445906	110.41663958842517	0	0	0
147	1	1	-13.070903778493546	-39.051454190768574	111.38417457577117	0	0	0
148	1	1	-13.255001014810357	-39.9759438815218	111.71798143500494	0	0	0
149	1	1	-13.439098251127168	-40.14910350684447	112.68551642235094	0	0	0
150	1	1	-13.62319548744398	-41.073593197597695	113.01932328158472	0	0	0
151	1	1	-13.80729272376079	-41.246752822920364	113.98685826893072	0	0	0
152	1	1	-0.7085829395707124	0.7052921357190421	65.06412623570573	0	0	0
153	1	1	-1.4171658791414274	1.326969864512515	65.3979330949395	0	0	0
154	1	1	-2.1257488187121423	1.9268939489631918	65.02644781845423	0	0	0
155	1	1	-2.8343317582828575	2.548571677756665	65.360254677688	0	0	0
156	1	1	-3.542914697853573	3.1484957622073417	64.98876940120273	0	0	0
157	1	1	-4.251497637424288	3.770173491000815	65.3225762604365	0	0	0
158	1	1	-4.960080576995003	4.370097575451492	64.95109098395123	0	0	0
159	1	1	-5.668663516565719	4.991775304244965	65.284897843185	0	0	0
160	1	1	-6.377246456136434	5.591699388695642	64.91341256669973	0	0	0
161	1	1	-7.085829395707149	6.213377117489115	65.24721942593351	0	0	0
162	1	1	-7.7944123352778645	6.813301201939792	64.87573414944823	0	0	0
163	1	1	-8.50299527484858	7.434978930733265	65.20954100868201	0	0	0
164	1	1	-9.211578214419294	8.034903015183941	64.83805573219674	0	0	0
165	1	1	-9.920161153990009	8.656580743977415	65.17186259143051	0	0	0
166	1	1	-10.628744093560723	9.256504828428092	64.80037731494524	0	0	0
167	1	1	-11.337327033131437	9.878182557221566	65.13418417417901	0	0	0
168	1	1	-12.045909972702152	10.478106641672243	64.76269889769374	0	0	0
169	1	1	-12.754492912272866	11.099784370465716	65.09650575692751	0	0	0
170	1	1	-13.46307585184358	11.699708454916394	64.72502048044224	0	0	0
171	1	1	-14.171658791414295	12.321386183709867	65.05882733967601	0	0	0
172	1	1	-14.88024173098501	12.921310268160545	64.68734206319074	0	0	0
173	1	1	-15.588824670555724	13.542987996954018	65.02114892242452	0	0	0
174	1	1	-16.297407610126438	14.142912081404695	64.64966364593924	0	0	0
175	1	1	-17.005990549697152	14.764589810198169	64.98347050517302	0	0	0
176	1	1	-17.714573489267867	15.364513894648846	64.61198522868774	0	0	0
177	1	1	-18.42315642883858	15.98619162344232	64.94579208792152	0	0	0
178	1	1	-19.131739368409296	16.586115707892997	64.57430681143624	0	0	0
179	1	1	-19.84032230798001	17.20779343668647	64.90811367067002	0	0	0
180	1	1	-20.548905247550724	17.807717521137146	64.53662839418475	0	0	0
181	1	1	-21.25748818712144	18.429395249930618	64.87043525341852	0	0	0
182	1	1	-21.966071126692153	19.029319334381295	64.49894997693325	0	0	0
183	1	1	-22.674654066262868	19.650997063174767	64.83275683616702	0	0	0
184	1	1	-23.383237005833582	20.250921147625444	64.46127155968175	0	0	0
185	1	1	-24.091819945404296	20.872598876418916	64.79507841891552	0	0	0
186	1	1	-24.80040288497501	21.472522960869593	64.42359314243025	0	0	0
187	1	1	-25.508985824545725	22.094200689663065	64.75740000166402	0	0	0
188	1	1	-26.21756876411644	22.694124774113742	64.38591472517875	0	0	0
189	1	1	-26.926151703687154	23.315802502907214	64.71972158441253	0	0	0
190	1	1	-27.634734643257868	23.91572658735789	64.34823630792725	0	0	0
191	1	1	-28.343317582828583	24.537404316151363	64.68204316716103	0	0	0
192	1	1	-29.051900522399297	25.13732840060204	64.31055789067575	0	0	0
193	1	1	-29.76048346197001	25.759006129395512	64.64436474990953	0	0	0
194	1	1	-30.469066401540726	26.35893021384619	64.27287947342425	0	0	0
195	1	1	-31.17764934111144	26.98060794263966	64.60668633265803	0	0	0
196	1	1	-31.886232280682155	27.58053202709034	64.23520105617276	0	0	0
197	1	1	-32.59481522025287	28.20220975588381	64.56900791540653	0	0	0
198	1	1	-33.30339815982359	28.802133840334488	64.19752263892126	0	0	0
199	1	1	-34.011981099394305	29.42381156912796	64.53132949815503	0	0	0
200	1	1	-34.72056403896502	30.023735653578637	64.15984422166976	0	0	0
201	1	1	-35.42914697853574	30.64541338237211	64.49365108090353	0	0	0
202	1	1	-36.13772991810646	31.245337466822786	64.12216580441826	0	0	0
203	1	1	-36.84631285767718	31.867015195616258	64.45597266365203	0	0	0
204	1	1	-37.554895797247895	32.46693928006693	64.08448738716676	0	0	0
205	1	1	-38.26347873681861	33.0886170088604	64.41829424640054	0	0	0
206	1	1	-38.97206167638933	33.68854109331108	64.04680896991526	0	0	0
207	1	1	-39.68064461596005	34.31021882210455	64.38061582914904	0	0	0
208	1	1	-40.389227555530766	34.91014290655523	64.00913055266376	0	0	0
209	1	1	-41.097810495101484	35.5318206353487	64.34293741189754	0	0	0
210	1	1	-41.8063934346722	36.13174471979938	63.971452135412264	0	0	0
211	1	1	-42.51497637424292	36.75342244859285	64.30525899464604	0	0	0
212	1	1	-43.22355931381364	37.35334653304353	63.933773718160765	0	0	0
213	1	1	-43.932142253384356	37.975024261837	64.26758057739454	0	0	0
214	1	1	-44.640725192955074	38.57494834628768	63.896095300909266	0	0	0
215	1	1	-45.34930813252579	39.19662607508115	64.22990216014304	0	0	0
216	1	1	-46.05789107209651	39.796550159531826	63.85841688365777	0	0	0
217	1	1	-46.76647401166723	40.4182278883253	64.19222374289154	0	0	0
218	1	1	-47.475056951237946	41.018151972775975	63.82073846640627	0	0	0
219	1	1	-48.183639890808664	41.63982970156945	64.15454532564004	0	0	0
220	1	1	-48.89222283037938	42.239753786020124	63.78306004915477	0	0	0
221	1	1	-49.6008057699501	42.861431514813596	64.11686690838854	0	0	0
222	1	1	-50.30938870952082	43.46135559926427	63.74538163190327	0	0	0
223	1	1	-51.017971649091535	44.083033328057745	64.07918849113705	0	0	0
224	1	1	-51.72655458866225	44.68295741250842	63.70770321465177	0	0	0
225	1	1	-52.43513752823297	45.304635141301894	64.04151007388555	0	0	0
226	1	1	-53.14372046780369	45.90455922575257	63.67002479740027	0	0	0
227	1	1	0.8926801758875109	0.42914628124384785	65.22355911912258	0	0	0
228	1	1	1.785360351775025	0.7319582432036137	65.55736597835636	0	0	0
229	1	1	2.678040527662539	1.1724494442374378	65.46202655634627	0	0	0
230	1	1	3.5707207035500534	1.4752614061972036	65.79583341558005	0	0	0
231	1	1	4.463400879437567	1.9157526072310276	65.70049399356996	0	0	0
232	1	1	5.356081055325081	2.2185645691907934	66.03430085280374	0	0	0
233	1	1	6.248761231212595	2.6590557702246174	65.93896143079365	0	0	0
234	1	1	7.141441407100109	2.961867732184383	66.27276829002743	0	0	0
235	1	1	8.034121582987623	3.402358933218207	66.17742886801734	0	0	0
236	1	1	8.926801758875138	3.705170895177973	66.51123572725112	0	0	0
237	1	1	9.819481934762653	4.145662096211797	66.41589630524103	0	0	0
238	1	1	10.712162110650167	4.448474058171564	66.74970316447481	0	0	0
239	1	1	11.604842286537682	4.888965259205388	66.65436374246472	0	0	0
240	1	1	12.497522462425197	5.191777221165154	66.9881706016985	0	0	0
241	1	1	13.390202638312712	5.632268422198978	66.89283117968841	0	0	0
242	1	1	14.282882814200226	5.935080384158744	67.22663803892219	0	0	0
243	1	1	15.175562990087741	6.375571585192568	67.1312986169121	0	0	0
244	1	1	16.068243165975254	6.678383547152334	67.46510547614588	0	0	0
245	1	1	16.960923341862767	7.118874748186158	67.3697660541358	0	0	0
246	1	1	17.85360351775028	7.4216867101459245	67.70357291336957	0	0	0
247	1	1	18.746283693637793	7.8621779111797485	67.60823349135948	0	0	0
248	1	1	19.638963869525305	8.164989873139515	67.94204035059326	0	0	0
249	1	1	20.53164404541282	8.605481074173339	67.84670092858318	0	0	0
250	1	1	21.42432422130033	8.908293036133104	68.18050778781695	0	0	0
251	1	1	22.317004397187844	9.348784237166928	68.08516836580687	0	0	0
252	1	1	23.209684573075357	9.651596199126693	68.41897522504064	0	0	0
253	1	1	24.10236474896287	10.092087400160517	68.32363580303056	0	0	0
254	1	1	24.995044924850383	10.394899362120283	68.65744266226433	0	0	0
255	1	1	25.887725100737896	10.835390563154107	68.56210324025425	0	0	0
256	1	1	26.78040527662541	11.138202525113872	68.89591009948802	0	0	0
257	1	1	27.67308545251292	11.578693726147696	68.80057067747794	0	0	0
258	1	1	28.565765628400435	11.881505688107461	69.13437753671171	0	0	0
259	1	1	29.458445804287948	12.321996889141285	69.03903811470163	0	0	0
260	1	1	30.35112598017546	12.62480885110105	69.3728449739354	0	0	0
261	1	1	31.243806156062973	13.065300052134875	69.27750555192532	0	0	0
262	1	1	32.136486331950486	13.36811201409464	69.61131241115909	0	0	0
263	1	1	33.029166507838	13.808603215128464	69.515972989149	0	0	0
264	1	1	33.92184668372551	14.11141517708823	69.84977984838278	0	0	0
265	1	1	34.814526859613025	14.551906378122053	69.7544404263727	0	0	0
266	1	1	35.70720703550054	14.854718340081819	70.08824728560647	0	0	0
267	1	1	36.59988721138805	15.295209541115643	69.99290786359639	0	0	0
268	1	1	37.492567387275564	15.598021503075408	70.32671472283016	0	0	0
269	1	1	38.38524756316308	16.038512704109234	70.23137530082008	0	0	0
270	1	1	39.27792773905059	16.341324666069	70.56518216005385	0	0	0
271	1	1	40.1706079149381	16.781815867102825	70.46984273804377	0	0	0
272	1	1	41.063288090825615	17.08462782906259	70.80364959727754	0	0	0
273	1	1	41.95596826671313	17.525119030096416	70.70831017526746	0	0	0
274	1	1	42.84864844260064	17.82793099205618	71.04211703450123	0	0	0
275	1	1	43.741328618488154	18.268422193090007	70.94677761249115	0	0	0
276	1	1	44.63400879437567	18.571234155049773	71.28058447172492	0	0	0
277	1	1	45.52668897026318	19.0117253560836	71.18524504971484	0	0	0
278	1	1	46.41936914615069	19.314537318043364	71.51905190894861	0	0	0
279	1	1	47.312049322038206	19.75502851907719	71.42371248693853	0	0	0
280	1	1	48.20472949792572	20.057840481036955	71.7575193461723	0	0	0
281	1	1	49.09740967381323	20.49833168207078	71.66217992416222	0	0	0
282	1	1	49.990089849700745	20.801143644030546	71.99598678339599	0	0	0
283	1	1	50.88277002558826	21.24163484506437	71.90064736138591	0	0	0
284	1	1	51.77545020147577	21.544446807024137	72.23445422061968	0	0	0
285	1	1	52.66813037736328	21.984938008057963	72.1391147986096	0	0	0
286	1	1	53.560810553250796	22.287749970017728	72.47292165784337	0	0	0
287	1	1	54.45349072913831	22.728241171051554	72.37758223583329	0	0	0
288	1	1	55.34617090502582	23.03105313301132	72.71138909506706	0	0	0
289	1	1	56.238851080913335	23.471544334045145	72.61604967305698	0	0	0
290	1	1	57.13153125680085	23.77435629600491	72.94985653229075	0	0	0
291	1	1	58.02421143268836	24.214847497038736	72.85451711028067	0	0	0
292	1	1	58.916891608575874	24.5176594589985	73.18832396951444	0	0	0
293	1	1	59.80957178446339	24.958150660032327	73.09298454750436	0	0	0
294	1	1	60.7022519603509	25.260962621992093	73.42679140673813	0	0	0
295	1	1	61.59493213623841	25.70145382302592	73.33145198472805	0	0	0
296	1	1	62.487612312125925	26.004265784985684	73.66525884396182	0	0	0
297	1	1	63.38029248801344	26.44475698601951	73.56991942195174	0	0	0
298	1	1	64.27297266390096	26.747568947979275	73.90372628118551	0	0	0
299	1	1	65.16565283978848	27.1880601490131	73.80838685917543	0	0	0
300	1	1	66.058333015676	27.490872110972866	74.1421937184092	0	0	0
301	1	1	66.95101319156352	27.93136331200669	74.04685429639912	0	0	0
302	1	1	66.86215511907322	28.74484388970895	73.4720903512403	0	0	0
303	1	1	66.77329704658293	29.736720708063746	73.38107046240452	0	0	0
304	1	1	66.68443897409263	30.153833581259732	72.4765699958665	0	0	0
305	1	1	66.59558090160233	31.14571039961453	72.38555010703072	0	0	0
306	1	1	66.50672282911204	31.562823272810515	71.4810496404927	0	0	0
307	1	1	66.41786475662174	32.55470009116531	71.39002975165693	0	0	0
308	1	1	66.32900668413144	32.97181296436129	70.4855292851189	0	0	0
309	1	1	66.24014861164115	33.96368978271609	70.39450939628313	0	0	0
310	1	1	66.15129053915085	34.38080265591207	69.4900089297451	0	0	0
311	1	1	66.06243246666055	35.37267947426687	69.39898904090933	0	0	0
312	1	1	65.97357439417026	35.78979234746285	68.4944885743713	0	0	0
313	1	1	65.88471632167996	36.78166916581765	68.40346868553553	0	0	0
314	1	1	65.79585824918966	37.19878203901363	67.4989682189975	0	0	0
315	1	1	65.70700017669937	38.190658857368426	67.40794833016173	0	0	0
316	1	1	65.61814210420907	38.60777173056441	66.5034478636237	0	0	0
317	1	1	65.52928403171877	39.599648548919205	66.41242797478793	0	0	0
318	1	1	65.44042595922848	40.01676142211519	65.5079275082499	0	0	0
319	1	1	65.35156788673818	41.008638240469985	65.41690761941413	0	0	0
320	1	1	65.26270981424788	41.42575111366597	64.51240715287611	0	0	0
321	1	1	65.17385174175759	42.417627932020764	64.42138726404033	0	0	0
322	1	1	65.08499366926729	42.83474080521675	63.51688679750231	0	0	0
323	1	1	64.996135596777	43.82661762357154	63.425866908666535	0	0	0
324	1	1	64.9072775242867	44.243730496767526	62.52136644212851	0	0	0
325	1	1	64.8184194517964	45.23560731512232	62.430346553292736	0	0	0
326	1	1	64.7295613793061	45.652720188318305	61.52584608675471	0	0	0
327	1	1	64.64070330681581	46.6445970066731	61.43482619791894	0	0	0
328	1	1	64.55184523432551	47.061709879869085	60.53032573138091	0	0	0
329	1	1	64.46298716183522	48.05358669822388	60.43930584254514	0	0	0
330	1	1	64.37412908934492	48.470699571419864	59.534805376007114	0	0	0
331	1	1	64.28527101685462	49.46257638977466	59.44378548717134	0	0	0
332	1	1	64.19641294436433	49.87968926297064	58.539285020633315	0	0	0
333	1	1	64.10755487187403	50.87156608132544	58.44826513179754	0	0	0
334	1	1	64.01869679938373	51.28867895452142	57.543764665259516	0	0	0
335	1	1	63.92983872689344	52.28055577287622	57.45274477642374	0	0	0
336	1	1	63.840980654403154	52.6976686460722	56.54824430988572	0	0	0
337	1	1	63.752122581912865	53.689545464427	56.45722442104994	0	0	0
338	1	1	63.663264509422575	54.10665833762298	55.55272395451192	0	0	0
339	1	1	63.574406436932286	55.09853515597778	55.461704065676145	0	0	0
340	1	1	63.485548364441996	55.51564802917376	54.55720359913812	0	0	0
341	1	1	63.39669029195171	56.50752484752856	54.466183710302346	0	0	0
342	1	1	63.30783221946142	56.92463772072454	53.56168324376432	0	0	0
343	1	1	63.21897414697113	57.91651453907934	53.47066335492855	0	0	0
344	1	1	63.13011607448084	58.33362741227532	52.56616288839052	0	0	0
345	1	1	63.04125800199055	59.325504230630116	52.47514299955475	0	0	0
346	1	1	62.95239992950026	59.7426171038261	51.57064253301672	0	0	0
347	1	1	62.86354185700997	60.734493922180896	51.47962264418095	0	0	0
348	1	1	62.77468378451968	61.15160679537688	50.575122177642925	0	0	0
349	1	1	62.68582571202939	62.143483613731675	50.48410228880715	0	0	0
350	1	1	62.5969676395391	62.56059648692766	49.579601822269126	0	0	0
351	1	1	62.50810956704881	63.552473305282454	49.48858193343335	0	0	0
352	1	1	62.41925149455852	63.96958617847844	48.58408146689533	0	0	0
353	1	1	62.330393422068234	64.96146299683323	48.49306157805955	0	0	0
354	1	1	62.241535349577944	65.37857587002922	47.58856111152153	0	0	0
355	1	1	62.152677277087655	66.37045268838402	47.497541222685754	0	0	0
356	1	1	62.063819204597365	66.78756556158001	46.59304075614773	0	0	0
357	1	1	61.974961132107076	67.7794423799348	46.502020867311955	0	0	0
358	1	1	61.88610305961679	68.1965552531308	45.59752040077393	0	0	0
359	1	1	61.7972449871265	69.1884320714856	45.50650051193816	0	0	0
360	1	1	61.70838691463621	69.60554494468158	44.60200004540013	0	0	0
361	1	1	61.61952884214592	70.59742176303638	44.51098015656436	0	0	0
362	1	1	61.53067076965563	71.01453463623237	43.60647969002633	0	0	0
363	1	1	61.44181269716534	72.00641145458717	43.51545980119056	0	0	0
364	1	1	61.35295462467505	72.42352432778316	42.610959334652534	0	0	0
365	1	1	61.26409655218476	73.41540114613795	42.51993944581676	0	0	0
366	1	1	61.17523847969447	73.83251401933394	41.615438979278736	0	0	0
367	1	1	61.08638040720418	74.82439083768874	41.52441909044296	0	0	0
368	1	1	60.99752233471389	75.24150371088473	40.61991862390494	0	0	0
369	1	1	60.9086642622236	76.23338052923953	40.52889873506916	0	0	0
370	1	1	60.81980618973331	76.65049340243552	39.62439826853114	0	0	0
371	1	1	60.730948117243024	77.64237022079031	39.533378379695364	0	0	0
372	1	1	60.642090044752734	78.0594830939863	38.62887791315734	0	0	0
373	1	1	60.553231972262445	79.0513599123411	38.537858024321565	0	0	0
374	1	1	60.464373899772156	79.46847278553709	37.63335755778354	0	0	0
375	1	1	60.375515827281866	80.46034960389188	37.542337668947766	0	0	0
376	1	1	60.28665775479158	80.87746247708787	36.63783720240974	0	0	0
377	1	1	67.59450922361937	27.293504168963686	73.62371298387475	0	0	0
378	1	1	68.2380052556752	26.952672603314454	72.93833228631647	0	0	0
379	1	1	68.88150128773104	26.188699725140864	72.89081073180118	0	0	0
380	1	1	69.52499731978688	25.847868159491632	72.2054300342429	0	0	0
381	1	1	70.16849335184271	25.083895281318043	72.15790847972761	0	0	0
382	1	1	70.81198938389855	24.74306371566881	71.47252778216932	0	0	0
383	1	1	71.45548541595439	23.97909083749522	71.42500622765404	0	0	0
384	1	1	72.09898144801022	23.63825927184599	70.73962553009575	0	0	0
385	1	1	72.74247748006606	22.8742863936724	70.69210397558047	0	0	0
386	1	1	73.3859735121219	22.533454828023167	70.00672327802218	0	0	0
387	1	1	74.02946954417773	21.769481949849578	69.9592017235069	0	0	0
388	1	1	74.67296557623357	21.428650384200346	69.2738210259486	0	0	0
389	1	1	75.3164616082894	20.664677506026756	69.22629947143332	0	0	0
390	1	1	75.95995764034524	20.323845940377524	68.54091877387503	0	0	0
391	1	1	76.60345367240107	19.559873062203934	68.49339721935975	0	0	0
392	1	1	77.24694970445691	19.219041496554702	67.80801652180146	0	0	0
393	1	1	77.89044573651275	18.455068618381112	67.76049496728618	0	0	0
394	1	1	78.53394176856858	18.11423705273188	67.07511426972789	0	0	0
395	1	1	79.17743780062442	17.35026417455829	67.0275927152126	0	0	0
396	1	1	79.82093383268025	17.00943260890906	66.34221201765432	0	0	0
397	1	1	80.46442986473609	16.24545973073547	66.29469046313903	0	0	0
398	1	1	81.10792589679193	15.904628165086237	65.60930976558075	0	0	0
399	1	1	81.75142192884776	15.140655286912647	65.56178821106546	0	0	0
400	1	1	82.3949179609036	14.799823721263415	64.87640751350717	0	0	0
401	1	1	83.03841399295943	14.035850843089825	64.82888595899189	0	0	0
402	1	1	83.68191002501527	13.695019277440593	64.1435052614336	0	0	0
403	1	1	84.3254060570711	12.931046399267004	64.09598370691832	0	0	0
404	1	1	84.96890208912694	12.590214833617772	63.41060300936003	0	0	0
405	1	1	85.61239812118278	11.826241955444182	63.363081454844746	0	0	0
406	1	1	86.25589415323861	11.48541038979495	62.67770075728646	0	0	0
407	1	1	86.89939018529445	10.72143751162136	62.630179202771174	0	0	0
408	1	1	87.54288621735029	10.380605945972128	61.94479850521289	0	0	0
409	1	1	88.18638224940612	9.616633067798539	61.8972769506976	0	0	0
410	1	1	88.82987828146196	9.275801502149307	61.211896253139315	0	0	0
411	1	1	89.4733743135178	8.511828623975717	61.16437469862403	0	0	0
412	1	1	90.11687034557363	8.170997058326485	60.47899400106574	0	0	0
413	1	1	90.76036637762947	7.407024180152896	60.43147244655046	0	0	0
414	1	1	91.4038624096853	7.066192614503664	59.74609174899217	0	0	0
415	1	1	92.04735844174114	6.302219736330075	59.698570194476886	0	0	0
416	1	1	92.69085447379697	5.961388170680843	59.0131894969186	0	0	0
417	1	1	93.33435050585281	5.197415292507254	58.965667942403314	0	0	0
418	1	1	93.97784653790865	4.856583726858022	58.28028724484503	0	0	0
419	1	1	94.62134256996448	4.0926108486844335	58.23276569032974	0	0	0
420	1	1	95.26483860202032	3.751779283035202	57.547384992771455	0	0	0
421	1	1	95.90833463407616	2.9878064048616126	57.49986343825617	0	0	0
422	1	1	96.55183066613199	2.646974839212381	56.81448274069788	0	0	0
423	1	1	97.19532669818783	1.883001961038792	56.7669611861826	0	0	0
424	1	1	97.83882273024366	1.5421703953895602	56.08158048862431	0	0	0
425	1	1	98.4823187622995	0.7781975172159712	56.03405893410903	0	0	0
426	1	1	99.12581479435534	0.43736595156673946	55.34867823655074	0	0	0
427	1	1	99.76931082641117	-0.3266069266068496	55.301156682035455	0	0	0
428	1	1	100.41280685846701	-0.6674384922560813	54.61577598447717	0	0	0
429	1	1	101.05630289052284	-1.4314113704296703	54.56825442996188	0	0	0
430	1	1	101.69979892257868	-1.772242936078902	53.882873732403596	0	0	0
431	1	1	102.34329495463452	-2.536215814252491	53.83535217788831	0	0	0
432	1	1	102.98679098669035	-2.8770473799017227	53.149971480330024	0	0	0
433	1	1	103.63028701874619	-3.6410202580753115	53.10244992581474	0	0	0
434	1	1	104.27378305080202	-3.981851823724543	52.41706922825645	0	0	0
435	1	1	104.91727908285786	-4.745824701898132	52.36954767374117	0	0	0
436	1	1	105.5607751149137	-5.086656267547364	51.68416697618288	0	0	0
437	1	1	106.20427114696953	-5.850629145720953	51.636645421667595	0	0	0
438	1	1	106.84776717902537	-6.191460711370185	50.95126472410931	0	0	0
439	1	1	107.4912632110812	-6.955433589543774	50.90374316959402	0	0	0
440	1	1	108.13475924313704	-7.296265155193006	50.218362472035736	0	0	0
441	1	1	108.77825527519288	-8.060238033366595	50.17084091752045	0	0	0
442	1	1	109.42175130724871	-8.401069599015827	49.485460219962164	0	0	0
443	1	1	110.06524733930455	-9.165042477189417	49.43793866544688	0	0	0
444	1	1	110.70874337136038	-9.505874042838649	48.75255796788859	0	0	0
445	1	1	111.35223940341622	-10.269846921012238	48.70503641337331	0	0	0
446	1	1	111.99573543547206	-10.61067848666147	48.01965571581502	0	0	0
447	1	1	112.63923146752789	-11.37465136483506	47.972134161299735	0	0	0
448	1	1	113.28272749958373	-11.715482930484292	47.28675346374145	0	0	0
449	1	1	113.92622353163956	-12.479455808657882	47.23923190922616	0	0	0
450	1	1	114.5697195636954	-12.820287374307114	46.553851211667876	0	0	0
451	1	1	115.21321559575124	-13.584260252480703	46.50632965715259	0	0	0
452	1	1	67.29032352943774	28.196858830359098	74.94928469501525	0	0	0
453	1	1	67.62963386731197	27.975569494535133	75.86356010454034	0	0	0
454	1	1	67.96894420518619	28.656710557327298	76.51233999571302	0	0	0