ITEM: TIMESTEP
0
ITEM: NUMBER OF ATOMS
101
ITEM: BOX BOUNDS pp pp pp
-1.0000000000000000e+03 1.0000000000000000e+03
-1.0000000000000000e+03 1.0000000000000000e+03
-1.0000000000000000e+03 1.0000000000000000e+03
ITEM: ATOMS id x y z ix iy iz
1 0.00000 0.00000 0.00000 0 0 0
2 0.00000 0.00000 1.00000 0 0 0
3 0.00000 -0.50000 1.86603 0 0 0
4 0.00000 0.00000 2.73205 0 0 0
5 0.00000 -0.50000 3.59808 0 0 0
6 0.00000 0.00000 4.46410 0 0 0
7 0.00000 -0.50000 5.33013 0 0 0
8 0.00000 0.00000 6.19615 0 0 0
9 0.00000 -0.50000 7.06218 0 0 0
10 0.00000 0.00000 7.92820 0 0 0
11 0.00000 -0.50000 8.79423 0 0 0
12 -0.77819 -0.20620 9.34930 0 0 0
13 -1.55638 -0.22930 9.97690 0 0 0
14 -2.33457 0.30267 10.31071 0 0 0
15 -3.11276 0.27957 10.93832 0 0 0
16 -3.89095 0.81154 11.27212 0 0 0
17 -4.66914 0.78844 11.89973 0 0 0
18 -5.44733 1.32042 12.23353 0 0 0
19 -6.22552 1.29732 12.86114 0 0 0
20 -7.00370 1.82929 13.19495 0 0 0
21 -7.78189 1.80619 13.82255 0 0 0
22 0.84980 -0.31361 9.28729 0 0 0
23 1.69959 -0.39872 9.80748 0 0 0
24 2.54939 0.00922 10.14129 0 0 0
25 3.39918 -0.07589 10.66148 0 0 0
26 4.24898 0.33206 10.99529 0 0 0
27 5.09878 0.24694 11.51549 0 0 0
28 5.94857 0.65489 11.84929 0 0 0
29 6.79837 0.56978 12.36949 0 0 0
30 7.64816 0.97772 12.70329 0 0 0
31 8.49796 0.89261 13.22349 0 0 0
32 -0.07161 -1.48090 8.61335 0 0 0
33 -0.14321 -2.23994 7.96627 0 0 0
34 -0.21482 -3.17986 8.30007 0 0 0
35 -0.28643 -3.93890 7.65298 0 0 0
36 -0.35803 -4.87882 7.98679 0 0 0
37 -0.42964 -5.63786 7.33970 0 0 0
38 -0.50125 -6.57778 7.67351 0 0 0
39 -0.57285 -7.33683 7.02642 0 0 0
40 -0.64446 -8.27674 7.36023 0 0 0
41 -0.71607 -9.03579 6.71314 0 0 0
42 -1.58165 -8.97063 6.21663 0 0 0
43 -2.44723 -8.66594 5.81922 0 0 0
44 -3.31281 -8.85777 5.35665 0 0 0
45 -4.17840 -8.55308 4.95924 0 0 0
46 -5.04398 -8.74491 4.49667 0 0 0
47 -5.90956 -8.44022 4.09927 0 0 0
48 -6.77515 -8.63205 3.63670 0 0 0
49 -7.64073 -8.32736 3.23929 0 0 0
50 -8.50631 -8.51918 2.77672 0 0 0
51 -9.37190 -8.21450 2.37931 0 0 0
52 -0.68202 -9.90271 7.21042 0 0 0
53 -0.64798 -10.90212 7.20762 0 0 0
54 -0.61394 -11.40426 8.07174 0 0 0
55 -0.57990 -12.40368 8.06894 0 0 0
56 -0.54586 -12.90581 8.93306 0 0 0
57 -0.51182 -13.90523 8.93026 0 0 0
58 -0.47777 -14.40736 9.79438 0 0 0
59 -0.44373 -15.40678 9.79158 0 0 0
60 -0.40969 -15.90891 10.65570 0 0 0
61 -0.37565 -16.90833 10.65289 0 0 0
62 0.04377 -8.99415 6.06435 0 0 0
63 0.80360 -8.63370 5.52331 0 0 0
64 1.56343 -8.92203 4.94063 0 0 0
65 2.32327 -8.56158 4.39958 0 0 0
66 3.08310 -8.84991 3.81690 0 0 0
67 3.84293 -8.48946 3.27586 0 0 0
68 4.60277 -8.77779 2.69318 0 0 0
69 5.36260 -8.41734 2.15213 0 0 0
70 6.12243 -8.70568 1.56945 0 0 0
71 6.88227 -8.34522 1.02841 0 0 0
72 6.74250 -7.36847 0.86587 0 0 0
73 6.60273 -6.44131 1.21349 0 0 0
74 6.46296 -5.67668 0.58436 0 0 0
75 6.32318 -4.74952 0.93198 0 0 0
76 6.18341 -3.98490 0.30284 0 0 0
77 6.04364 -3.05774 0.65046 0 0 0
78 5.90387 -2.29311 0.02133 0 0 0
79 5.76410 -1.36595 0.36895 0 0 0
80 5.62433 -0.60132 -0.26019 0 0 0
81 5.48456 0.32584 0.08743 0 0 0
82 6.92568 -8.82556 0.15240 0 0 0
83 6.96909 -8.80354 -0.84642 0 0 0
84 7.01250 -9.65753 -1.36489 0 0 0
85 7.05591 -9.63551 -2.36371 0 0 0
86 7.09933 -10.48950 -2.88219 0 0 0
87 7.14274 -10.46748 -3.88100 0 0 0
88 7.18615 -11.32147 -4.39948 0 0 0
89 7.22956 -11.29945 -5.39829 0 0 0
90 7.27297 -12.15344 -5.91677 0 0 0
91 7.31639 -12.13142 -6.91558 0 0 0
92 7.73954 -8.48068 1.52513 0 0 0
93 8.59681 -8.84635 1.88759 0 0 0
94 9.45408 -8.71529 2.38549 0 0 0
95 10.31135 -9.08096 2.74795 0 0 0
96 11.16862 -8.94990 3.24585 0 0 0
97 12.02589 -9.31557 3.60831 0 0 0
98 12.88316 -9.18451 4.10621 0 0 0
99 13.74043 -9.55018 4.46866 0 0 0
100 14.59770 -9.41912 4.96657 0 0 0
101 15.45498 -9.78479 5.32902 0 0 0
ITEM: TIMESTEP
1000
ITEM: NUMBER OF ATOMS
101
ITEM: BOX BOUNDS pp pp pp
-1.0000000000000000e+03 1.0000000000000000e+03
-1.0000000000000000e+03 1.0000000000000000e+03
-1.0000000000000000e+03 1.0000000000000000e+03
ITEM: ATOMS id x y z ix iy iz
1 -0.35396 1.96873 5.04915 0 0 0
2 0.37258 1.65142 4.46321 0 0 0
3 -0.43666 1.08506 4.39439 0 0 0
4 -1.33696 0.79351 4.59526 0 0 0
5 -2.00730 0.21226 4.97194 0 0 0
6 -2.84215 -0.48823 4.84221 0 0 0
7 -2.33436 -0.96647 5.56937 0 0 0
8 -2.12552 -1.55507 6.34548 0 0 0
9 -2.46928 -1.97115 7.17314 0 0 0
10 -2.94075 -1.27565 7.76576 0 0 0
11 -3.26802 -1.55515 8.70020 0 0 0
12 -4.26145 -1.27459 8.74754 0 0 0
13 -4.45710 -1.29458 9.68502 0 0 0
14 -5.15988 -1.86409 9.09117 0 0 0
15 -5.73496 -2.10143 8.33436 0 0 0
16 -6.71966 -2.49087 8.14899 0 0 0
17 -6.92794 -2.23711 9.08612 0 0 0
18 -7.20431 -1.66464 9.85737 0 0 0
19 -7.72930 -0.77450 9.93477 0 0 0
20 -7.50485 0.18617 10.17054 0 0 0
21 -7.72887 0.08201 11.11056 0 0 0
22 -2.74114 -1.94363 9.39862 0 0 0
23 -1.84120 -2.02056 9.74393 0 0 0
24 -1.19747 -1.35679 9.97521 0 0 0
25 -0.25178 -1.71649 9.63218 0 0 0
26 0.56457 -1.16841 9.36268 0 0 0
27 1.42069 -0.64010 9.63947 0 0 0
28 2.10723 -0.47065 8.92996 0 0 0
29 2.89825 0.05407 8.55832 0 0 0
30 3.42228 0.64541 9.05245 0 0 0
31 3.87819 -0.27226 8.97514 0 0 0
32 -2.84409 -2.40492 8.37293 0 0 0
33 -3.27646 -3.02620 9.06506 0 0 0
34 -2.93976 -4.01223 8.97485 0 0 0
35 -2.20079 -4.86107 8.94522 0 0 0
36 -1.61349 -5.66383 8.87724 0 0 0
37 -0.92463 -6.26909 8.65709 0 0 0
38 -0.12995 -6.76034 8.49693 0 0 0
39 0.18099 -7.24629 7.66105 0 0 0
40 0.49485 -7.97205 7.05050 0 0 0
41 0.27218 -8.53507 6.31775 0 0 0
42 -0.41596 -7.90993 6.28617 0 0 0
43 -1.04456 -7.31246 6.86674 0 0 0
44 -1.19587 -7.31727 5.91645 0 0 0
45 -1.14783 -8.22141 5.65211 0 0 0
46 -1.62104 -8.29283 6.52801 0 0 0
47 -2.45365 -7.69807 6.68936 0 0 0
48 -2.99423 -7.64047 5.90383 0 0 0
49 -3.75176 -6.92790 5.82339 0 0 0
50 -4.46757 -6.67977 5.20532 0 0 0
51 -4.64101 -6.52697 4.25276 0 0 0
52 -0.08763 -9.43051 6.18574 0 0 0
53 -0.83337 -9.96544 6.19410 0 0 0
54 -1.79834 -9.79195 6.31250 0 0 0
55 -1.90189 -10.51759 6.94056 0 0 0
56 -2.72496 -10.48333 7.49754 0 0 0
57 -2.89797 -11.36749 7.89816 0 0 0
58 -2.24736 -12.04101 8.21415 0 0 0
59 -1.43533 -12.39453 8.69275 0 0 0
60 -1.37693 -13.15842 8.14432 0 0 0
61 -1.52940 -12.88425 7.20545 0 0 0
62 0.99043 -8.38599 5.62004 0 0 0
63 1.52441 -7.70903 5.14620 0 0 0
64 1.87798 -6.84880 5.51865 0 0 0
65 2.57904 -6.49700 4.99114 0 0 0
66 3.55859 -6.40578 4.71806 0 0 0
67 4.23271 -7.01871 4.23661 0 0 0
68 4.60816 -7.01569 3.37123 0 0 0
69 5.35696 -7.51420 3.15243 0 0 0
70 5.82546 -7.49787 2.27762 0 0 0
71 5.95140 -8.13978 1.61098 0 0 0
72 6.56243 -7.98478 0.83775 0 0 0
73 7.39157 -7.36347 1.12875 0 0 0
74 7.88603 -6.64546 0.67801 0 0 0
75 8.48893 -6.00484 0.32773 0 0 0
76 8.07675 -5.57389 -0.40627 0 0 0
77 7.67990 -4.70426 -0.61578 0 0 0
78 7.49218 -4.08373 0.18182 0 0 0
79 6.62084 -3.68234 0.18562 0 0 0
80 6.98380 -2.95434 0.79959 0 0 0
81 6.17348 -2.64323 1.26206 0 0 0
82 5.28183 -8.93384 1.80958 0 0 0
83 4.92607 -9.34737 1.01553 0 0 0
84 5.21391 -10.01081 0.34859 0 0 0
85 5.07469 -10.13810 -0.59784 0 0 0
86 5.21956 -9.78962 -1.52581 0 0 0
87 5.85488 -10.13425 -2.28641 0 0 0
88 5.90864 -9.24647 -2.63248 0 0 0
89 6.13432 -8.34052 -2.42640 0 0 0
90 6.69079 -7.78449 -3.02241 0 0 0
91 6.99800 -6.92497 -3.32167 0 0 0
92 6.62169 -8.77632 1.62685 0 0 0
93 6.27237 -9.57553 1.17514 0 0 0
94 6.60907 -10.01640 2.00001 0 0 0
95 7.38031 -9.62475 2.32708 0 0 0
96 8.28881 -9.09865 2.14005 0 0 0
97 9.02565 -9.63709 2.30496 0 0 0
98 9.40353 -9.50207 3.25249 0 0 0
99 10.44039 -9.65684 3.40297 0 0 0
100 10.20557 -9.78093 4.35211 0 0 0
101 9.77362 -10.06093 5.16815 0 0 0
ITEM: TIMESTEP
2000
ITEM: NUMBER OF ATOMS
101
ITEM: BOX BOUNDS pp pp pp
-1.0000000000000000e+03 1.0000000000000000e+03
-1.0000000000000000e+03 1.0000000000000000e+03
-1.0000000000000000e+03 1.0000000000000000e+03
ITEM: ATOMS id x y z ix iy iz
1 0.88042 4.02834 5.59251 0 0 0
2 0.02458 3.53786 5.63366 0 0 0
3 -0.28543 2.98343 6.38225 0 0 0
4 -0.87411 2.31023 6.81713 0 0 0
5 -0.40742 1.42963 6.53705 0 0 0
6 -0.78627 1.34724 7.41207 0 0 0
7 -1.35505 0.55172 7.42146 0 0 0
8 -2.34910 0.38475 7.53391 0 0 0
9 -2.50337 -0.27449 8.18611 0 0 0
10 -1.83707 -0.95436 8.63307 0 0 0
11 -1.55745 -1.70838 9.15454 0 0 0
12 -2.16857 -1.72478 9.99134 0 0 0
13 -2.95099 -2.35918 10.27927 0 0 0
14 -3.93252 -2.20132 10.49292 0 0 0
15 -4.44882 -1.40680 10.08083 0 0 0
16 -4.15994 -0.94699 9.24516 0 0 0
17 -4.22032 0.04348 9.08049 0 0 0
18 -4.45140 1.03746 9.10964 0 0 0
19 -4.11701 0.96937 10.02573 0 0 0
20 -4.62677 1.00200 10.86069 0 0 0
21 -4.46677 1.61013 11.58879 0 0 0
22 -0.99732 -1.86411 9.94582 0 0 0
23 -0.07502 -2.02762 10.41235 0 0 0
24 0.94226 -2.16547 10.85542 0 0 0
25 1.77185 -1.77918 11.06596 0 0 0
26 2.53951 -1.96198 10.32489 0 0 0
27 3.02021 -2.70447 9.83381 0 0 0
28 3.55970 -3.53581 9.80022 0 0 0
29 4.25081 -3.01560 9.45967 0 0 0
30 4.04500 -3.79099 8.84820 0 0 0
31 4.41212 -3.13852 8.31337 0 0 0
32 -1.12419 -2.51486 8.85572 0 0 0
33 -0.44282 -3.03665 8.26852 0 0 0
34 0.16821 -3.18025 7.55794 0 0 0
35 0.81031 -3.64498 6.92434 0 0 0
36 1.53029 -4.34281 6.65045 0 0 0
37 1.22343 -5.17859 6.73691 0 0 0
38 0.38241 -5.26474 7.23071 0 0 0
39 0.42966 -5.85613 6.44195 0 0 0
40 0.17237 -6.49476 5.77400 0 0 0
41 -0.35562 -7.28596 6.00043 0 0 0
42 -1.20726 -7.02252 5.65475 0 0 0
43 -1.85529 -6.37958 5.37301 0 0 0
44 -2.65104 -6.20481 4.88127 0 0 0
45 -2.90345 -6.79627 5.62243 0 0 0
46 -3.62480 -7.45954 5.28736 0 0 0
47 -3.52023 -8.24492 5.78138 0 0 0
48 -4.19282 -8.66217 5.21278 0 0 0
49 -4.28316 -8.61185 4.24351 0 0 0
50 -3.84006 -8.64969 3.43132 0 0 0
51 -4.21837 -7.70146 3.60149 0 0 0
52 0.01472 -8.02514 6.61086 0 0 0
53 -0.33388 -8.91769 6.92015 0 0 0
54 -0.81980 -9.42144 7.66790 0 0 0
55 -1.27492 -10.26751 7.45437 0 0 0
56 -2.15729 -9.87175 7.64275 0 0 0
57 -2.40148 -10.73950 7.48645 0 0 0
58 -3.12091 -11.20207 8.04315 0 0 0
59 -3.34468 -12.02487 8.57612 0 0 0
60 -4.13130 -12.09778 7.78566 0 0 0
61 -4.57183 -11.28081 7.50326 0 0 0
62 0.17494 -7.91299 5.47146 0 0 0
63 0.82760 -8.14117 4.81545 0 0 0
64 0.20394 -8.48518 4.11028 0 0 0
65 1.01431 -8.89467 3.81873 0 0 0
66 1.96127 -8.52490 3.72001 0 0 0
67 2.61080 -8.00533 3.21146 0 0 0
68 3.33407 -8.16010 2.58417 0 0 0
69 4.14328 -7.77549 2.17901 0 0 0
70 4.98139 -7.25689 2.42789 0 0 0
71 5.92931 -7.26850 2.12170 0 0 0
72 6.49949 -6.49118 1.91722 0 0 0
73 6.18302 -6.38296 0.91513 0 0 0
74 6.28563 -6.48646 -0.04305 0 0 0
75 6.00202 -6.34363 -0.97853 0 0 0
76 5.17896 -6.74070 -1.43052 0 0 0
77 5.01022 -6.06420 -0.69884 0 0 0
78 5.17710 -5.23439 -0.27432 0 0 0
79 4.46565 -4.65903 -0.46276 0 0 0
80 4.07204 -3.73784 -0.55287 0 0 0
81 3.54242 -3.66907 -1.39495 0 0 0
82 6.36264 -8.01797 1.55980 0 0 0
83 5.62737 -8.42571 1.04802 0 0 0
84 5.39359 -8.35613 0.05470 0 0 0
85 4.51559 -8.20109 -0.25211 0 0 0
86 4.24513 -8.06484 -1.17222 0 0 0
87 3.42684 -7.58673 -1.48894 0 0 0
88 3.05058 -6.76136 -1.46082 0 0 0
89 2.26587 -6.28104 -1.71248 0 0 0
90 2.71185 -6.27614 -2.58239 0 0 0
91 3.19750 -6.38843 -3.46917 0 0 0
92 6.85325 -7.43490 2.56137 0 0 0
93 7.73463 -7.75987 2.82450 0 0 0
94 8.61354 -7.49690 2.53733 0 0 0
95 8.52668 -7.89944 3.43009 0 0 0
96 9.20501 -8.30773 4.07042 0 0 0
97 10.05815 -8.67935 3.78536 0 0 0
98 10.44026 -9.56656 3.98571 0 0 0
99 10.81288 -9.37128 3.05970 0 0 0
100 10.44690 -9.28120 2.16226 0 0 0
101 9.90281 -9.36238 1.40627 0 0 0
ITEM: TIMESTEP
3000
ITEM: NUMBER OF ATOMS
101
ITEM: BOX BOUNDS pp pp pp
-1.0000000000000000e+03 1.0000000000000000e+03
-1.0000000000000000e+03 1.0000000000000000e+03
-1.0000000000000000e+03 1.0000000000000000e+03
ITEM: ATOMS id x y z ix iy iz
1 0.76260 -0.03235 2.35402 0 0 0
2 0.76701 -0.82504 2.87994 0 0 0
3 0.19045 -0.46688 3.58808 0 0 0
4 -0.31054 -0.17062 4.34639 0 0 0
5 -0.98524 0.37162 4.96975 0 0 0
6 -1.44167 0.43614 5.90322 0 0 0
7 -1.24598 -0.47158 6.32480 0 0 0
8 -0.96275 -1.25917 6.75044 0 0 0
9 -1.10411 -1.43702 7.68108 0 0 0
10 -1.51458 -1.68242 8.64646 0 0 0
11 -1.01796 -2.20655 9.23300 0 0 0
12 -1.74279 -2.25577 9.90484 0 0 0
13 -2.59964 -2.59420 9.52241 0 0 0
14 -3.04327 -1.96018 8.82860 0 0 0
15 -3.00970 -1.00733 8.67270 0 0 0
16 -2.45264 -0.43128 8.02184 0 0 0
17 -2.57704 0.39947 8.62548 0 0 0
18 -2.45119 0.88417 7.74780 0 0 0
19 -1.56997 1.30157 7.92759 0 0 0
20 -1.39743 2.22790 8.14653 0 0 0
21 -1.07421 2.96820 7.53147 0 0 0
22 -0.49199 -1.81092 9.97805 0 0 0
23 -0.24827 -2.47096 10.61053 0 0 0
24 0.52388 -2.62754 11.17961 0 0 0
25 1.38934 -2.03124 11.06740 0 0 0
26 2.00157 -2.63848 10.63035 0 0 0
27 2.64797 -3.35492 11.10092 0 0 0
28 2.80318 -3.97562 10.39313 0 0 0
29 2.25970 -3.67057 9.65372 0 0 0
30 1.55413 -3.18399 9.27524 0 0 0
31 0.83097 -2.60289 9.27466 0 0 0
32 -0.32900 -2.91043 9.47189 0 0 0
33 -0.19092 -3.83927 9.71778 0 0 0
34 0.21344 -4.28380 8.86212 0 0 0
35 0.48383 -5.22965 8.78194 0 0 0
36 0.72288 -5.33625 7.79882 0 0 0
37 1.08874 -6.20041 7.45714 0 0 0
38 0.49645 -6.57958 6.79407 0 0 0
39 -0.41975 -6.78422 7.11513 0 0 0
40 -0.59949 -7.39802 6.32081 0 0 0
41 -0.51402 -6.99884 5.41672 0 0 0
42 -1.19494 -7.63383 5.51245 0 0 0
43 -1.93859 -8.09317 4.95697 0 0 0
44 -2.57922 -8.79308 5.00423 0 0 0
45 -3.20295 -8.56862 5.76000 0 0 0
46 -3.82642 -7.85090 5.83347 0 0 0
47 -4.68490 -7.50415 5.39548 0 0 0
48 -5.06147 -6.88657 5.93772 0 0 0
49 -5.95779 -7.22901 6.25721 0 0 0
50 -6.55157 -7.37514 6.99085 0 0 0
51 -6.61641 -7.10173 7.92049 0 0 0
52 -0.15712 -7.98368 5.55528 0 0 0
53 0.80218 -8.20700 5.48377 0 0 0
54 1.15025 -9.10539 5.07674 0 0 0
55 0.72152 -10.02309 5.19137 0 0 0
56 0.42023 -11.02482 5.29059 0 0 0
57 -0.25855 -11.62072 5.87282 0 0 0
58 -0.67961 -11.83007 5.06767 0 0 0
59 -1.13171 -12.72826 5.07405 0 0 0
60 -0.91107 -13.66034 5.42243 0 0 0
61 -1.75984 -13.32034 5.75029 0 0 0
62 -0.12618 -6.31435 4.86630 0 0 0
63 0.68248 -6.76091 4.45738 0 0 0
64 1.56739 -6.48379 4.30576 0 0 0
65 2.25982 -6.18699 3.63692 0 0 0
66 3.00078 -5.98688 2.90378 0 0 0
67 3.92645 -5.57533 3.16283 0 0 0
68 4.62327 -5.39232 2.42785 0 0 0
69 5.36464 -5.86113 1.88444 0 0 0
70 6.20477 -5.59259 1.54874 0 0 0
71 6.94159 -6.28245 1.34663 0 0 0
72 6.60293 -6.08205 0.42775 0 0 0
73 6.31650 -5.16111 0.23711 0 0 0
74 5.34646 -5.63337 0.21763 0 0 0
75 4.44203 -5.99238 0.08436 0 0 0
76 3.58501 -5.98308 -0.36956 0 0 0
77 2.76949 -6.11806 -0.78045 0 0 0
78 2.04091 -5.56171 -1.09692 0 0 0
79 2.43553 -5.86184 -1.90133 0 0 0
80 2.96463 -6.72700 -2.17563 0 0 0
81 3.70643 -7.36128 -2.28498 0 0 0
82 6.99073 -7.16615 0.83792 0 0 0
83 6.08767 -7.73804 0.81527 0 0 0
84 5.81968 -8.25643 1.53282 0 0 0
85 4.98538 -8.41368 1.96384 0 0 0
86 3.97487 -8.52647 1.90661 0 0 0
87 3.72633 -8.59197 2.87840 0 0 0
88 2.77961 -8.41270 2.50990 0 0 0
89 1.89094 -8.05768 2.30806 0 0 0
90 1.44534 -7.20684 2.41580 0 0 0
91 0.71527 -6.61364 2.15562 0 0 0
92 7.67864 -5.85223 1.81249 0 0 0
93 8.33217 -6.54061 2.05114 0 0 0
94 8.74893 -6.81046 2.91741 0 0 0
95 9.30790 -6.41002 3.66272 0 0 0
96 9.31425 -7.24534 4.11862 0 0 0
97 9.77615 -7.86142 4.64749 0 0 0
98 10.67715 -8.04606 4.31506 0 0 0
99 11.45734 -7.87686 3.71207 0 0 0
100 12.29723 -8.38159 3.94620 0 0 0
101 11.67671 -9.11194 3.74178 0 0 0
ITEM: TIMESTEP
4000
ITEM: NUMBER OF ATOMS
101
ITEM: BOX BOUNDS pp pp pp
-1.0000000000000000e+03 1.0000000000000000e+03
-1.0000000000000000e+03 1.0000000000000000e+03
-1.0000000000000000e+03 1.0000000000000000e+03
ITEM: ATOMS id x y z ix iy iz
1 -1.03559 0.87708 6.35579 0 0 0
2 -1.40713 0.17819 5.80834 0 0 0
3 -1.19436 -0.65609 5.41945 0 0 0
4 -0.71614 -1.06514 6.19461 0 0 0
5 -0.72743 -0.79620 7.16181 0 0 0
6 -0.05335 -1.32247 7.61947 0 0 0
7 0.39315 -0.97217 8.44193 0 0 0
8 0.89142 -0.85963 9.26989 0 0 0
9 0.43042 -1.38253 10.05975 0 0 0
10 -0.14939 -2.17048 9.99584 0 0 0
11 0.11910 -3.11667 10.18021 0 0 0
12 -0.56946 -3.45518 10.78793 0 0 0
13 -1.45969 -3.39169 10.37413 0 0 0
14 -1.27297 -2.77519 9.59013 0 0 0
15 -1.27223 -1.81878 9.24282 0 0 0
16 -1.91581 -1.04250 9.03058 0 0 0
17 -1.58746 -0.19454 8.68469 0 0 0
18 -1.61948 0.45101 9.40194 0 0 0
19 -1.90266 1.38014 9.61617 0 0 0
20 -2.46564 2.07888 10.04905 0 0 0
21 -3.05107 2.72911 10.47311 0 0 0
22 0.18190 -4.08497 10.04912 0 0 0
23 0.29376 -4.25853 9.10770 0 0 0
24 0.59496 -5.21884 9.35250 0 0 0
25 1.47046 -5.15422 8.99175 0 0 0
26 2.20187 -5.86296 9.12333 0 0 0
27 2.42941 -5.57549 9.98759 0 0 0
28 1.48913 -5.64446 10.11175 0 0 0
29 1.35864 -5.94343 11.05576 0 0 0
30 0.74647 -5.13312 11.14752 0 0 0
31 1.33200 -4.49306 11.58038 0 0 0
32 0.78459 -3.08737 9.36074 0 0 0
33 1.28499 -3.73516 8.92533 0 0 0
34 0.75752 -3.34707 8.22502 0 0 0
35 0.43902 -2.67293 7.61429 0 0 0
36 0.75066 -2.86153 6.70955 0 0 0
37 0.29975 -3.68960 6.53202 0 0 0
38 -0.29876 -3.62823 5.75505 0 0 0
39 -0.55876 -4.57248 5.77732 0 0 0
40 -0.36790 -5.58160 5.69627 0 0 0
41 -0.52182 -6.36240 5.06749 0 0 0
42 -1.21816 -6.39598 5.81300 0 0 0
43 -2.18773 -6.37579 5.33963 0 0 0
44 -2.62198 -7.23238 5.31961 0 0 0
45 -2.75459 -8.30518 5.24597 0 0 0
46 -3.63241 -8.40762 5.52207 0 0 0
47 -4.30706 -9.14542 5.84740 0 0 0
48 -4.77428 -9.98156 5.46492 0 0 0
49 -5.68079 -10.10332 5.62550 0 0 0
50 -6.58258 -10.59133 5.72076 0 0 0
51 -7.13345 -9.81044 5.78919 0 0 0
52 -0.42760 -7.10192 4.43119 0 0 0
53 -0.58115 -7.99311 4.83784 0 0 0
54 -0.22147 -8.41193 5.58089 0 0 0
55 0.37553 -9.17812 5.68741 0 0 0
56 1.13260 -9.72655 5.94356 0 0 0
57 0.93702 -10.61740 5.59377 0 0 0
58 0.82930 -11.48002 5.21047 0 0 0
59 1.61119 -11.89146 4.84590 0 0 0
60 2.38418 -12.60316 5.07035 0 0 0
61 3.13597 -13.25366 5.46169 0 0 0
62 0.21415 -5.94429 4.61833 0 0 0
63 0.29430 -5.54982 3.69561 0 0 0
64 1.26707 -5.65289 3.59559 0 0 0
65 1.95266 -6.05064 2.99306 0 0 0
66 2.57273 -5.43207 2.76443 0 0 0
67 2.42008 -4.81351 3.55125 0 0 0
68 3.30758 -4.91199 3.23883 0 0 0
69 4.19505 -4.80110 3.47993 0 0 0
70 5.09901 -4.64938 3.46547 0 0 0
71 6.05005 -4.82648 3.22096 0 0 0
72 5.49299 -4.72590 2.42859 0 0 0
73 5.94507 -4.79140 1.54922 0 0 0
74 5.89988 -4.87683 0.54196 0 0 0
75 6.02730 -4.59729 -0.43354 0 0 0
76 5.71139 -4.80036 -1.42619 0 0 0
77 4.97289 -4.54719 -2.09789 0 0 0
78 4.01124 -4.33250 -2.02250 0 0 0
79 3.10523 -4.59255 -2.48533 0 0 0
80 2.78397 -4.86502 -1.58596 0 0 0
81 3.00971 -5.76135 -1.25834 0 0 0
82 5.90931 -5.82218 3.09472 0 0 0
83 6.29482 -6.70635 2.62136 0 0 0
84 5.50454 -7.31932 2.64417 0 0 0
85 5.28396 -8.26823 2.91780 0 0 0
86 4.89365 -8.76141 2.20054 0 0 0
87 4.84727 -8.54674 1.28112 0 0 0
88 4.38252 -7.78151 0.85983 0 0 0
89 3.48751 -8.20433 1.08649 0 0 0
90 2.98431 -8.71505 1.75942 0 0 0
91 2.72716 -8.36116 2.62053 0 0 0
92 6.28572 -4.47666 4.11670 0 0 0
93 7.06420 -4.82890 4.60748 0 0 0
94 7.52408 -4.66053 5.44325 0 0 0
95 8.12915 -5.43493 5.39307 0 0 0
96 8.99348 -5.93987 5.11016 0 0 0
97 9.87942 -6.37756 4.84113 0 0 0
98 10.62956 -6.63798 4.36381 0 0 0
99 11.12989 -6.75018 3.49908 0 0 0
100 11.67572 -6.01063 3.69377 0 0 0
101 12.61106 -6.00012 3.75187 0 0 0
ITEM: TIMESTEP
5000
ITEM: NUMBER OF ATOMS
101
ITEM: BOX BOUNDS pp pp pp
-1.0000000000000000e+03 1.0000000000000000e+03
-1.0000000000000000e+03 1.0000000000000000e+03
-1.0000000000000000e+03 1.0000000000000000e+03
ITEM: ATOMS id x y z ix iy iz
1 1.43316 1.88704 8.80858 0 0 0
2 1.58036 0.98852 9.11930 0 0 0
3 1.36457 0.09272 8.81650 0 0 0
4 1.97687 -0.34588 9.43943 0 0 0
5 1.91648 -1.28263 8.97993 0 0 0
6 2.80455 -1.60383 9.21475 0 0 0
7 3.20866 -1.22595 10.00755 0 0 0
8 3.00966 -2.05401 10.55539 0 0 0
9 2.88382 -3.07594 10.41719 0 0 0
10 2.24537 -2.77652 9.71476 0 0 0
11 1.38257 -2.87120 9.24950 0 0 0
12 1.05005 -2.03564 9.57960 0 0 0
13 0.86871 -2.04115 10.53237 0 0 0
14 0.93529 -1.07309 10.68481 0 0 0
15 0.16677 -0.62778 11.07922 0 0 0
16 0.29580 0.13298 10.50294 0 0 0
17 0.38777 0.28245 9.52729 0 0 0
18 -0.08450 1.11889 9.28011 0 0 0
19 0.10333 0.83908 8.36748 0 0 0
20 -0.66590 0.50186 8.83851 0 0 0
21 -1.61138 0.12820 9.31208 0 0 0
22 0.62412 -3.52572 9.01400 0 0 0
23 0.12234 -4.33496 9.31653 0 0 0
24 -0.03883 -4.72427 10.17585 0 0 0
25 -1.00423 -4.93309 10.32221 0 0 0
26 -1.47792 -5.43117 9.68398 0 0 0
27 -0.76459 -6.00890 9.87537 0 0 0
28 -0.11932 -6.63116 10.08227 0 0 0
29 -0.01917 -6.86061 10.98053 0 0 0
30 0.48795 -6.07010 11.34655 0 0 0
31 -0.02983 -6.54004 12.02401 0 0 0
32 1.55659 -2.35409 8.37606 0 0 0
33 0.93843 -2.22214 7.63756 0 0 0
34 0.23882 -2.94395 7.51326 0 0 0
35 0.49792 -3.41201 6.66352 0 0 0
36 0.94251 -4.01780 6.07052 0 0 0
37 1.81022 -4.09312 5.57931 0 0 0
38 1.81698 -5.07533 5.66410 0 0 0
39 1.97254 -5.87034 6.19839 0 0 0
40 2.24874 -6.52158 5.47493 0 0 0
41 1.39179 -6.83030 5.03695 0 0 0
42 0.50897 -6.47290 4.88168 0 0 0
43 0.05097 -5.67732 4.68026 0 0 0
44 -0.66513 -4.98246 4.44685 0 0 0
45 -1.35151 -5.66799 4.46185 0 0 0
46 -2.30063 -5.85059 4.64711 0 0 0
47 -3.28871 -5.55224 4.56165 0 0 0
48 -4.08545 -6.05906 4.75411 0 0 0
49 -4.92634 -6.20420 4.30376 0 0 0
50 -5.67493 -6.38129 3.70733 0 0 0
51 -5.29349 -7.27375 3.93814 0 0 0
52 0.99261 -7.77931 4.99269 0 0 0
53 1.33881 -8.71598 4.98265 0 0 0
54 0.97109 -9.67874 4.91060 0 0 0
55 0.96143 -10.65753 5.34992 0 0 0
56 0.16863 -11.27027 5.41281 0 0 0
57 0.92184 -11.65041 5.83819 0 0 0
58 1.84645 -11.87215 6.10484 0 0 0
59 2.85201 -12.01604 6.05837 0 0 0
60 3.69706 -11.42290 6.06774 0 0 0
61 3.91947 -12.32281 5.93300 0 0 0
62 1.66254 -6.07066 4.44170 0 0 0
63 1.83446 -5.34173 3.76238 0 0 0
64 2.07415 -4.83992 2.96801 0 0 0
65 2.63057 -4.07266 2.72092 0 0 0
66 2.99422 -3.82939 1.92086 0 0 0
67 3.58082 -3.12241 1.48310 0 0 0
68 4.32605 -3.45986 0.91611 0 0 0
69 4.90826 -3.90387 1.49906 0 0 0
70 5.56487 -4.51382 1.90998 0 0 0
71 6.27076 -4.81487 1.26134 0 0 0
72 6.04532 -3.82959 1.21729 0 0 0
73 5.54392 -3.47075 0.49549 0 0 0
74 5.25434 -2.76457 -0.11783 0 0 0
75 4.44833 -2.40164 0.22323 0 0 0
76 4.03928 -2.51893 -0.61553 0 0 0
77 3.42000 -2.93726 -1.28178 0 0 0
78 2.70707 -3.51262 -0.85195 0 0 0
79 3.06358 -3.56381 -0.02047 0 0 0
80 3.07879 -4.21334 0.74067 0 0 0
81 3.00651 -5.17868 0.79888 0 0 0
82 6.38231 -5.66071 0.78763 0 0 0
83 5.37257 -5.82291 1.14147 0 0 0
84 4.63349 -6.33060 1.60136 0 0 0
85 4.59438 -7.19941 2.05965 0 0 0
86 5.03508 -7.66859 2.74688 0 0 0
87 4.01030 -7.82024 2.88857 0 0 0
88 3.21245 -7.75355 2.32462 0 0 0
89 2.47458 -8.33799 2.52978 0 0 0
90 2.33286 -9.24386 2.96074 0 0 0
91 1.79550 -8.65692 3.47497 0 0 0
92 7.08409 -5.24774 1.43544 0 0 0
93 7.00446 -5.03352 2.37464 0 0 0
94 7.56367 -5.26962 3.10010 0 0 0
95 8.35586 -5.73934 3.62245 0 0 0
96 9.02412 -6.53249 3.92556 0 0 0
97 9.19990 -6.03173 4.74338 0 0 0
98 9.91034 -5.38266 5.02240 0 0 0
99 10.27105 -4.53922 5.60920 0 0 0
100 10.63534 -3.71127 5.91597 0 0 0
101 10.53382 -4.03063 6.83462 0 0 0
ITEM: TIMESTEP
6000
ITEM: NUMBER OF ATOMS
101
ITEM: BOX BOUNDS pp pp pp
-1.0000000000000000e+03 1.0000000000000000e+03
-1.0000000000000000e+03 1.0000000000000000e+03
-1.0000000000000000e+03 1.0000000000000000e+03
ITEM: ATOMS id x y z ix iy iz
1 2.56636 -0.84842 7.56734 0 0 0
2 2.73382 -1.01918 8.52746 0 0 0
3 3.66372 -1.45003 8.75823 0 0 0
4 4.53916 -1.90465 8.96458 0 0 0
5 4.24240 -2.56360 9.67871 0 0 0
6 4.05938 -3.28169 9.03531 0 0 0
7 3.27405 -2.89805 9.33242 0 0 0
8 3.22637 -2.63825 10.25349 0 0 0
9 2.81518 -3.37937 10.78343 0 0 0
10 1.96603 -3.69955 10.39535 0 0 0
11 1.92967 -3.38671 9.48905 0 0 0
12 1.71380 -2.49684 9.88484 0 0 0
13 1.86432 -1.61418 10.24302 0 0 0
14 1.12561 -0.99803 10.05468 0 0 0
15 0.24736 -0.54420 10.02482 0 0 0
16 -0.16795 -0.71836 9.16405 0 0 0
17 0.64814 -0.86337 8.69012 0 0 0
18 1.26481 -0.28026 8.24664 0 0 0
19 1.87839 0.57390 8.19390 0 0 0
20 2.59097 1.21449 8.31930 0 0 0
21 2.73614 1.76697 7.56187 0 0 0
22 2.36172 -4.32532 9.39273 0 0 0
23 2.91348 -4.74663 10.07698 0 0 0
24 2.47931 -5.46214 10.60736 0 0 0
25 2.06435 -6.05202 11.23259 0 0 0
26 1.37533 -5.55362 10.52839 0 0 0
27 1.29365 -5.19059 11.38996 0 0 0
28 1.13650 -4.22585 11.33920 0 0 0
29 0.25389 -3.73489 11.39721 0 0 0
30 -0.17635 -3.15354 12.12413 0 0 0
31 -0.51748 -3.50877 13.09841 0 0 0
32 2.15170 -2.89973 8.67777 0 0 0
33 2.98556 -3.23090 8.28316 0 0 0
34 2.85509 -2.99909 7.31003 0 0 0
35 2.48264 -3.80297 6.95661 0 0 0
36 1.55977 -4.15981 7.05256 0 0 0
37 1.40333 -4.82123 6.26387 0 0 0
38 0.77471 -4.93341 5.49316 0 0 0
39 0.26800 -5.33493 4.78673 0 0 0
40 1.17175 -5.63712 4.48420 0 0 0
41 0.78680 -6.22317 5.17191 0 0 0
42 0.25600 -5.83727 5.94922 0 0 0
43 -0.71634 -5.83665 5.78550 0 0 0
44 -1.60127 -6.22179 5.75402 0 0 0
45 -1.99137 -6.86182 5.15003 0 0 0
46 -2.79632 -6.48751 4.72601 0 0 0
47 -3.25123 -6.38138 3.87932 0 0 0
48 -3.77585 -5.75483 4.40114 0 0 0
49 -3.55305 -4.78975 4.33502 0 0 0
50 -4.45617 -4.59704 4.02646 0 0 0
51 -4.60675 -4.91972 3.06820 0 0 0
52 0.24209 -6.90385 4.88484 0 0 0
53 0.48093 -7.82512 4.86941 0 0 0
54 1.23433 -8.19095 4.42116 0 0 0
55 1.03897 -9.10644 4.12441 0 0 0
56 1.21362 -10.07098 4.26810 0 0 0
57 1.21704 -10.95838 4.67989 0 0 0
58 2.16571 -11.37186 4.85723 0 0 0
59 2.73200 -12.15508 5.11515 0 0 0
60 2.28822 -12.60509 5.86090 0 0 0
61 2.63323 -13.37489 6.32829 0 0 0
62 1.49339 -6.07579 5.77609 0 0 0
63 2.26078 -5.98528 5.16071 0 0 0
64 3.11129 -5.51426 4.97002 0 0 0
65 3.86822 -5.76024 4.45647 0 0 0
66 3.93655 -5.67751 3.47002 0 0 0
67 4.86003 -5.54869 3.23532 0 0 0
68 5.73909 -5.14445 3.41739 0 0 0
69 6.50832 -5.81564 3.35791 0 0 0
70 6.87203 -6.24397 2.56121 0 0 0
71 6.84523 -5.44623 2.02815 0 0 0
72 6.22379 -4.70853 2.03134 0 0 0
73 5.86662 -4.27951 1.24081 0 0 0
74 5.38411 -4.47389 0.41046 0 0 0
75 4.54834 -3.90208 0.28707 0 0 0
76 3.65329 -3.65581 0.48984 0 0 0
77 3.64442 -2.65290 0.40064 0 0 0
78 2.74246 -2.42987 -0.00420 0 0 0
79 2.23790 -2.86425 -0.72449 0 0 0
80 1.25201 -2.81007 -0.68345 0 0 0
81 1.52358 -1.99067 -1.16213 0 0 0
82 6.24807 -6.11332 1.58915 0 0 0
83 5.80645 -5.78266 2.55341 0 0 0
84 5.87173 -6.81854 2.66910 0 0 0
85 5.39556 -7.54032 3.15247 0 0 0
86 4.58476 -7.27195 3.59957 0 0 0
87 3.62819 -7.27830 3.33149 0 0 0
88 3.62265 -8.06039 3.93101 0 0 0
89 4.41533 -8.46374 4.46961 0 0 0
90 4.04103 -9.28982 4.05500 0 0 0
91 4.08867 -10.25540 4.20304 0 0 0
92 7.49369 -5.28624 1.24928 0 0 0
93 8.49682 -5.18947 1.22290 0 0 0
94 8.71807 -5.01555 2.16271 0 0 0
95 9.51993 -4.95735 2.64610 0 0 0
96 9.96202 -4.93814 3.55558 0 0 0
97 10.19816 -4.28700 4.28104 0 0 0
98 10.80181 -3.50644 4.48218 0 0 0
99 10.92628 -3.46952 5.44347 0 0 0
100 10.66225 -3.36480 6.34009 0 0 0
101 10.07839 -3.48699 7.10666 0 0 0
ITEM: TIMESTEP
7000
ITEM: NUMBER OF ATOMS
101
ITEM: BOX BOUNDS pp pp pp
-1.0000000000000000e+03 1.0000000000000000e+03
-1.0000000000000000e+03 1.0000000000000000e+03
-1.0000000000000000e+03 1.0000000000000000e+03
ITEM: ATOMS id x y z ix iy iz
1 8.46807 -3.26038 8.40995 0 0 0
2 8.44348 -2.28552 8.32565 0 0 0
3 7.67613 -1.69430 8.47325 0 0 0
4 6.91067 -1.40416 8.96380 0 0 0
5 5.97769 -1.76432 8.88123 0 0 0
6 5.23390 -1.51857 9.53685 0 0 0
7 4.33303 -1.02260 9.65652 0 0 0
8 4.08744 -1.66192 8.98698 0 0 0
9 3.42661 -2.12305 8.40385 0 0 0
10 2.72450 -2.62492 8.93090 0 0 0
11 2.06127 -2.50205 8.26679 0 0 0
12 1.35650 -1.81827 7.80683 0 0 0
13 1.93146 -1.11625 7.24618 0 0 0
14 2.63972 -0.65631 7.80644 0 0 0
15 2.25660 -0.52429 8.71366 0 0 0
16 1.89264 -0.57981 9.58900 0 0 0
17 2.25995 -0.84840 10.50693 0 0 0
18 2.86017 -0.04228 10.73800 0 0 0
19 3.12582 -0.65194 11.39924 0 0 0
20 3.67674 -1.40371 11.02484 0 0 0
21 4.56847 -1.83295 10.71259 0 0 0
22 1.74871 -2.95517 9.06823 0 0 0
23 1.87734 -2.76079 10.02973 0 0 0
24 1.04410 -2.31951 10.32127 0 0 0
25 0.62213 -2.67242 11.11876 0 0 0
26 0.26389 -3.22192 11.78108 0 0 0
27 0.00766 -3.88655 12.40997 0 0 0
28 0.51419 -4.02905 13.22981 0 0 0
29 0.44348 -4.32357 14.16567 0 0 0
30 0.31378 -5.35545 14.13254 0 0 0
31 0.40827 -6.02464 14.81175 0 0 0
32 2.71471 -2.83390 7.54981 0 0 0
33 2.67321 -3.20755 6.60320 0 0 0
34 1.92763 -3.30625 5.97922 0 0 0
35 2.19762 -3.64150 5.08749 0 0 0
36 2.60454 -2.81783 4.57429 0 0 0
37 2.29824 -3.37389 3.81406 0 0 0
38 3.08367 -4.02347 3.76790 0 0 0
39 2.58265 -4.75778 4.22440 0 0 0
40 1.66603 -5.17272 4.02231 0 0 0
41 1.27463 -5.87209 4.72023 0 0 0
42 0.30565 -5.98760 4.90363 0 0 0
43 -0.47775 -6.50620 4.72645 0 0 0
44 -0.57241 -7.42734 4.60262 0 0 0
45 -1.53964 -7.39492 4.72579 0 0 0
46 -2.50903 -7.65127 4.58708 0 0 0
47 -3.04651 -7.53899 5.40844 0 0 0
48 -3.24241 -7.30054 6.32211 0 0 0
49 -3.46317 -6.52511 5.76117 0 0 0
50 -3.91552 -5.77762 5.37900 0 0 0
51 -3.83758 -4.82762 5.02698 0 0 0
52 1.83245 -6.53654 4.30281 0 0 0
53 2.44212 -7.36787 4.02336 0 0 0
54 2.80257 -8.28851 4.02974 0 0 0
55 2.94414 -9.23397 3.82094 0 0 0
56 2.14921 -9.79001 3.94456 0 0 0
57 1.43512 -10.16136 4.45455 0 0 0
58 0.71981 -10.84118 4.39853 0 0 0
59 0.16245 -11.29714 3.81222 0 0 0
60 0.10329 -10.90177 2.84571 0 0 0
61 -0.37750 -11.59956 2.35718 0 0 0
62 1.74268 -6.24798 5.43320 0 0 0
63 2.71821 -6.50292 5.30019 0 0 0
64 3.81529 -6.54967 5.03628 0 0 0
65 4.50629 -6.04382 5.48822 0 0 0
66 4.86252 -6.72335 4.75194 0 0 0
67 5.18954 -7.36267 4.10369 0 0 0
68 4.84442 -6.80838 3.35371 0 0 0
69 4.18739 -6.13517 3.64285 0 0 0
70 4.65525 -5.22904 3.49491 0 0 0
71 5.13029 -4.41161 3.77409 0 0 0
72 4.61345 -3.69780 4.07231 0 0 0
73 4.46328 -3.07686 3.38614 0 0 0
74 4.64271 -2.79911 2.48621 0 0 0
75 4.06875 -2.84147 1.71528 0 0 0
76 3.43403 -3.16091 2.36897 0 0 0
77 2.76076 -3.33891 1.65455 0 0 0
78 1.94494 -2.96824 1.18205 0 0 0
79 1.17324 -3.40764 1.58940 0 0 0
80 0.58882 -3.99826 2.03918 0 0 0
81 0.43677 -4.62488 2.73161 0 0 0
82 5.51676 -3.78486 4.46713 0 0 0
83 5.99573 -4.65111 4.76369 0 0 0
84 6.56782 -5.54126 4.89005 0 0 0
85 6.24806 -6.41888 5.16202 0 0 0
86 6.27983 -7.35900 5.42123 0 0 0
87 5.84620 -8.14471 5.76432 0 0 0
88 6.12188 -8.98406 5.37861 0 0 0
89 5.59428 -9.47611 6.04088 0 0 0
90 5.29126 -10.26678 6.40031 0 0 0
91 5.80999 -11.05681 6.26923 0 0 0
92 6.04162 -4.12301 3.64712 0 0 0
93 6.59213 -3.50104 4.20398 0 0 0
94 7.07306 -3.32910 4.99906 0 0 0
95 8.02226 -3.20368 5.17900 0 0 0
96 8.99740 -2.84510 5.10838 0 0 0
97 9.79729 -2.58316 5.63970 0 0 0
98 10.72454 -2.34706 5.65904 0 0 0
99 11.17099 -1.57813 6.10892 0 0 0
100 11.81660 -1.26476 5.36446 0 0 0
101 12.56773 -0.85688 4.98424 0 0 0
ITEM: TIMESTEP
8000
ITEM: NUMBER OF ATOMS
101
ITEM: BOX BOUNDS pp pp pp
-1.0000000000000000e+03 1.0000000000000000e+03
-1.0000000000000000e+03 1.0000000000000000e+03
-1.0000000000000000e+03 1.0000000000000000e+03