bb290nuc7bl36bn4d30tot800V2

793 atoms
792 bonds
812 angles

1 atom types
1 bond types
1 angle types

-1000 1000 xlo xhi
-1000 1000 ylo yhi
-1000 1000 zlo zhi

Masses

1 1

Atoms

1	1	1	0.0	0.0	0.0	0	0	0
2	1	1	0.0	0.0	1.0	0	0	0
3	1	1	0.0	-0.49999999999999994	1.8660254037844388	0	0	0
4	1	1	0.0	0.0	2.7320508075688776	0	0	0
5	1	1	0.0	-0.49999999999999994	3.5980762113533165	0	0	0
6	1	1	0.0	0.0	4.464101615137755	0	0	0
7	1	1	0.0	-0.49999999999999994	5.330127018922194	0	0	0
8	1	1	0.0	0.0	6.196152422706632	0	0	0
9	1	1	0.0	-0.49999999999999994	7.06217782649107	0	0	0
10	1	1	0.0	0.0	7.928203230275509	0	0	0
11	1	1	0.0	-0.49999999999999994	8.794228634059948	0	0	0
12	1	1	0.0	0.0	9.660254037844387	0	0	0
13	1	1	0.0	-0.49999999999999994	10.526279441628827	0	0	0
14	1	1	0.0	0.0	11.392304845413266	0	0	0
15	1	1	0.0	-0.49999999999999994	12.258330249197705	0	0	0
16	1	1	0.0	0.0	13.124355652982144	0	0	0
17	1	1	0.0	-0.49999999999999994	13.990381056766584	0	0	0
18	1	1	0.0	0.0	14.856406460551023	0	0	0
19	1	1	0.0	-0.49999999999999994	15.722431864335462	0	0	0
20	1	1	0.0	0.0	16.5884572681199	0	0	0
21	1	1	0.0	-0.49999999999999994	17.454482671904337	0	0	0
22	1	1	0.0	0.0	18.320508075688775	0	0	0
23	1	1	0.0	-0.49999999999999994	19.186533479473212	0	0	0
24	1	1	0.0	0.0	20.05255888325765	0	0	0
25	1	1	0.0	-0.49999999999999994	20.918584287042087	0	0	0
26	1	1	0.0	0.0	21.784609690826525	0	0	0
27	1	1	0.0	-0.49999999999999994	22.650635094610962	0	0	0
28	1	1	0.0	0.0	23.5166604983954	0	0	0
29	1	1	0.0	-0.49999999999999994	24.382685902179837	0	0	0
30	1	1	0.0	0.0	25.248711305964274	0	0	0
31	1	1	0.0	-0.49999999999999994	26.114736709748712	0	0	0
32	1	1	0.0	0.0	26.98076211353315	0	0	0
33	1	1	0.0	-0.49999999999999994	27.846787517317587	0	0	0
34	1	1	0.0	0.0	28.712812921102024	0	0	0
35	1	1	0.0	-0.49999999999999994	29.578838324886462	0	0	0
36	1	1	0.0	0.0	30.4448637286709	0	0	0
37	1	1	0.0	-0.49999999999999994	31.310889132455337	0	0	0
38	1	1	0.7591963912706405	-1.150789123926595	31.32060281664256	0	0	0
39	1	1	1.518392782541282	-1.7192458798472567	31.003620551949734	0	0	0
40	1	1	2.2775891738119234	-2.2779889515806975	31.337427411183505	0	0	0
41	1	1	3.036785565082565	-2.846445707501359	31.02044514649068	0	0	0
42	1	1	3.7959819563532062	-3.4051887792347997	31.35425200572445	0	0	0
43	1	1	4.555178347623848	-3.9736455351554616	31.037269741031626	0	0	0
44	1	1	5.3143747388944895	-4.532388606888903	31.371076600265397	0	0	0
45	1	1	6.073571130165131	-5.100845362809564	31.05409433557257	0	0	0
46	1	1	6.832767521435773	-5.659588434543005	31.387901194806343	0	0	0
47	1	1	7.591963912706415	-6.228045190463667	31.070918930113518	0	0	0
48	1	1	8.351160303977057	-6.786788262197108	31.40472578934729	0	0	0
49	1	1	9.110356695247699	-7.3552450181177695	31.087743524654464	0	0	0
50	1	1	9.86955308651834	-7.913988089851211	31.421550383888235	0	0	0
51	1	1	10.628749477788983	-8.482444845771873	31.10456811919541	0	0	0
52	1	1	11.387945869059624	-9.041187917505313	31.43837497842918	0	0	0
53	1	1	12.147142260330266	-9.609644673425976	31.121392713736356	0	0	0
54	1	1	12.906338651600908	-10.168387745159416	31.455199572970127	0	0	0
55	1	1	13.66553504287155	-10.736844501080078	31.1382173082773	0	0	0
56	1	1	14.424731434142192	-11.295587572813519	31.472024167511073	0	0	0
57	1	1	15.183927825412834	-11.864044328734181	31.155041902818247	0	0	0
58	1	1	15.943124216683476	-12.422787400467621	31.48884876205202	0	0	0
59	1	1	16.702320607954118	-12.991244156388284	31.171866497359193	0	0	0
60	1	1	17.46151699922476	-13.549987228121724	31.505673356592965	0	0	0
61	1	1	18.2207133904954	-14.118443984042386	31.18869109190014	0	0	0
62	1	1	18.979909781766043	-14.677187055775827	31.52249795113391	0	0	0
63	1	1	19.739106173036685	-15.245643811696489	31.205515686441085	0	0	0
64	1	1	20.498302564307327	-15.80438688342993	31.539322545674857	0	0	0
65	1	1	21.25749895557797	-16.37284363935059	31.22234028098203	0	0	0
66	1	1	22.01669534684861	-16.931586711084034	31.556147140215803	0	0	0
67	1	1	22.775891738119252	-17.500043467004694	31.239164875522977	0	0	0
68	1	1	23.535088129389894	-18.058786538738136	31.57297173475675	0	0	0
69	1	1	24.294284520660536	-18.627243294658797	31.255989470063923	0	0	0
70	1	1	25.053480911931178	-19.18598636639224	31.589796329297695	0	0	0
71	1	1	25.81267730320182	-19.7544431223129	31.27281406460487	0	0	0
72	1	1	26.571873694472462	-20.31318619404634	31.60662092383864	0	0	0
73	1	1	27.331070085743104	-20.881642949967002	31.289638659145815	0	0	0
74	1	1	-0.8634838899450292	-0.9943578759150126	31.410918439791715	0	0	0
75	1	1	-1.7269677798900593	-1.472499008686518	31.25036742311047	0	0	0
76	1	1	-2.5904516698350895	-1.850610834121646	31.584174282344243	0	0	0
77	1	1	-3.4539355597801196	-2.3287519668931513	31.423623265663	0	0	0
78	1	1	-4.31741944972515	-2.7068637923282792	31.75743012489677	0	0	0
79	1	1	-5.18090333967018	-3.1850049250997845	31.59687910821553	0	0	0
80	1	1	-6.04438722961521	-3.5631167505349124	31.9306859674493	0	0	0
81	1	1	-6.90787111956024	-4.041257883306418	31.770134950768057	0	0	0
82	1	1	-7.77135500950527	-4.419369708741546	32.10394181000183	0	0	0
83	1	1	-8.634838899450301	-4.897510841513052	31.943390793320585	0	0	0
84	1	1	-9.498322789395331	-5.27562266694818	32.27719765255436	0	0	0
85	1	1	-10.361806679340361	-5.753763799719685	32.11664663587312	0	0	0
86	1	1	-11.225290569285391	-6.131875625154813	32.450453495106885	0	0	0
87	1	1	-12.088774459230422	-6.610016757926319	32.289902478425645	0	0	0
88	1	1	-12.952258349175452	-6.988128583361447	32.62370933765941	0	0	0
89	1	1	-13.815742239120482	-7.4662697161329525	32.463158320978174	0	0	0
90	1	1	-14.679226129065512	-7.84438154156808	32.79696518021194	0	0	0
91	1	1	-15.542710019010542	-8.322522674339586	32.6364141635307	0	0	0
92	1	1	-16.406193908955572	-8.700634499774715	32.97022102276447	0	0	0
93	1	1	-17.269677798900602	-9.17877563254622	32.80967000608323	0	0	0
94	1	1	-18.133161688845632	-9.556887457981349	33.143476865317	0	0	0
95	1	1	-18.996645578790663	-10.035028590752853	32.98292584863576	0	0	0
96	1	1	-19.860129468735693	-10.413140416187982	33.31673270786953	0	0	0
97	1	1	-20.723613358680723	-10.891281548959487	33.15618169118829	0	0	0
98	1	1	-21.587097248625753	-11.269393374394616	33.489988550422055	0	0	0
99	1	1	-22.450581138570783	-11.74753450716612	33.329437533740816	0	0	0
100	1	1	-23.314065028515813	-12.12564633260125	33.66324439297458	0	0	0
101	1	1	-24.177548918460843	-12.603787465372754	33.502693376293344	0	0	0
102	1	1	-25.041032808405873	-12.981899290807883	33.83650023552711	0	0	0
103	1	1	-25.904516698350903	-13.460040423579388	33.67594921884587	0	0	0
104	1	1	-26.768000588295934	-13.838152249014517	34.00975607807964	0	0	0
105	1	1	-27.631484478240964	-14.316293381786021	33.8492050613984	0	0	0
106	1	1	-28.494968368185994	-14.69440520722115	34.18301192063217	0	0	0
107	1	1	-29.358452258131024	-15.172546339992655	34.02246090395093	0	0	0
108	1	1	-30.221936148076054	-15.550658165427784	34.3562677631847	0	0	0
109	1	1	-31.085420038021084	-16.02879929819929	34.19571674650346	0	0	0
110	1	1	0.10428749867438494	0.1444367109909504	32.068401801093565	0	0	0
111	1	1	0.20857499734877	0.3237789395212918	33.046645371318284	0	0	0
112	1	1	0.3128624960231551	1.2606338366898582	33.38045223055205	0	0	0
113	1	1	0.4171499946975401	1.4399760652201996	34.35869580077677	0	0	0
114	1	1	0.5214374933719251	2.376830962388766	34.69250266001055	0	0	0
115	1	1	0.6257249920463102	2.5561731909191074	35.67074623023527	0	0	0
116	1	1	0.7300124907206952	3.493028088087674	36.00455308946904	0	0	0
117	1	1	0.8342999893950802	3.6723703166180153	36.98279665969376	0	0	0
118	1	1	0.9385874880694652	4.609225213786582	37.316603518927536	0	0	0
119	1	1	1.0428749867438503	4.788567442316923	38.294847089152256	0	0	0
120	1	1	1.1471624854182354	5.7254223394854895	38.62865394838603	0	0	0
121	1	1	1.2514499840926205	5.904764568015831	39.60689751861075	0	0	0
122	1	1	1.3557374827670057	6.841619465184397	39.940704377844526	0	0	0
123	1	1	1.4600249814413908	7.020961693714739	40.918947948069246	0	0	0
124	1	1	1.564312480115776	7.957816590883305	41.25275480730302	0	0	0
125	1	1	1.668599978790161	8.137158819413646	42.23099837752774	0	0	0
126	1	1	1.7728874774645462	9.074013716582213	42.564805236761515	0	0	0
127	1	1	1.8771749761389314	9.253355945112554	43.543048806986235	0	0	0
128	1	1	1.9814624748133165	10.190210842281122	43.87685566622001	0	0	0
129	1	1	2.0857499734877014	10.369553070811463	44.85509923644473	0	0	0
130	1	1	2.1900374721620866	11.30640796798003	45.188906095678504	0	0	0
131	1	1	2.2943249708364717	11.485750196510372	46.167149665903224	0	0	0
132	1	1	2.398612469510857	12.42260509367894	46.500956525137	0	0	0
133	1	1	2.502899968185242	12.60194732220928	47.47920009536172	0	0	0
134	1	1	2.607187466859627	13.538802219377848	47.813006954595494	0	0	0
135	1	1	2.7114749655340122	13.71814444790819	48.791250524820214	0	0	0
136	1	1	2.8157624642083974	14.654999345076757	49.12505738405399	0	0	0
137	1	1	2.9200499628827825	14.834341573607098	50.10330095427871	0	0	0
138	1	1	3.0243374615571677	15.771196470775665	50.43710781351248	0	0	0
139	1	1	3.128624960231553	15.950538699306007	51.4153513837372	0	0	0
140	1	1	3.232912458905938	16.887393596474574	51.74915824297098	0	0	0
141	1	1	3.337199957580323	17.066735825004915	52.7274018131957	0	0	0
142	1	1	3.441487456254708	18.00359072217348	53.06120867242947	0	0	0
143	1	1	3.5457749549290933	18.182932950703822	54.03945224265419	0	0	0
144	1	1	3.6500624536034785	19.119787847872388	54.37325910188797	0	0	0
145	1	1	3.7543499522778636	19.29913007640273	55.35150267211269	0	0	0
146	1	1	3.520004289114213	20.25223961252035	55.54298197208541	0	0	0
147	1	1	3.285658625950562	20.98191703340105	56.185362678219455	0	0	0
148	1	1	3.0513129627869104	21.90307375425447	55.87463384823588	0	0	0
149	1	1	2.816967299623259	22.632751175135173	56.51701455436993	0	0	0
150	1	1	2.5826216364596077	23.553907895988594	56.206285724386355	0	0	0
151	1	1	2.3482759732959564	24.283585316869296	56.8486664305204	0	0	0
152	1	1	2.113930310132305	25.204742037722717	56.53793760053683	0	0	0
153	1	1	1.879584646968654	25.93441945860342	57.18031830667088	0	0	0
154	1	1	1.6452389838050028	26.85557617945684	56.8695894766873	0	0	0
155	1	1	1.4108933206413516	27.58525360033754	57.51197018282135	0	0	0
156	1	1	1.1765476574777005	28.506410321190963	57.201241352837776	0	0	0
157	1	1	0.9422019943140494	29.236087742071664	57.843622058971825	0	0	0
158	1	1	0.7078563311503981	30.157244462925085	57.53289322898825	0	0	0
159	1	1	0.47351066798674696	30.886921883805787	58.1752739351223	0	0	0
160	1	1	0.23916500482309574	31.808078604659208	57.864545105138724	0	0	0
161	1	1	0.004819341659444559	32.537756025539906	58.50692581127277	0	0	0
162	1	1	-0.22952632150420665	33.458912746393324	58.1961969812892	0	0	0
163	1	1	-0.46387198466785784	34.18859016727403	58.838577687423246	0	0	0
164	1	1	-0.6982176478315091	35.10974688812745	58.52784885743967	0	0	0
165	1	1	-0.9325633109951603	35.83942430900815	59.17022956357372	0	0	0
166	1	1	-1.1669089741588115	36.76058102986157	58.859500733590146	0	0	0
167	1	1	-1.4012546373224626	37.490258450742274	59.501881439724194	0	0	0
168	1	1	-1.6356003004861137	38.41141517159569	59.19115260974062	0	0	0
169	1	1	-1.8699459636497648	39.1410925924764	59.83353331587467	0	0	0
170	1	1	-2.104291626813416	40.062249313329815	59.52280448589109	0	0	0
171	1	1	-2.3386372899770675	40.79192673421052	60.16518519202514	0	0	0
172	1	1	-2.572982953140719	41.71308345506394	59.85445636204157	0	0	0
173	1	1	-2.8073286163043703	42.44276087594464	60.496837068175616	0	0	0
174	1	1	-3.0416742794680216	43.36391759679806	60.18610823819204	0	0	0
175	1	1	-3.276019942631673	44.093595017678766	60.82848894432609	0	0	0
176	1	1	-3.5103656057953243	45.01475173853218	60.517760114342515	0	0	0
177	1	1	-3.7447112689589757	45.74442915941289	61.16014082047656	0	0	0
178	1	1	-3.979056932122627	46.665585880266306	60.84941199049299	0	0	0
179	1	1	-4.213402595286278	47.39526330114701	61.49179269662704	0	0	0
180	1	1	-4.44774825844993	48.31642002200043	61.18106386664346	0	0	0
181	1	1	-4.682093921613581	49.046097442881134	61.82344457277751	0	0	0
182	1	1	4.701459956491331	19.12820122511766	55.62310158175175	0	0	0
183	1	1	5.648569960704801	18.844373042845564	55.77284871149679	0	0	0
184	1	1	6.595679964918271	18.832143770212532	56.09352469252691	0	0	0
185	1	1	7.542789969131741	18.548315587940436	56.24327182227196	0	0	0
186	1	1	8.48989997334521	18.536086315307404	56.56394780330208	0	0	0
187	1	1	9.43700997755868	18.25225813303531	56.71369493304712	0	0	0
188	1	1	10.38411998177215	18.240028860402276	57.03437091407724	0	0	0
189	1	1	11.331229985985619	17.95620067813018	57.18411804382229	0	0	0
190	1	1	12.278339990199088	17.943971405497148	57.50479402485241	0	0	0
191	1	1	13.225449994412557	17.660143223225052	57.65454115459745	0	0	0
192	1	1	14.172559998626026	17.64791395059202	57.975217135627574	0	0	0
193	1	1	15.119670002839495	17.364085768319924	58.12496426537262	0	0	0
194	1	1	16.066780007052966	17.351856495686892	58.44564024640274	0	0	0
195	1	1	17.013890011266437	17.068028313414796	58.595387376147784	0	0	0
196	1	1	17.961000015479907	17.055799040781764	58.916063357177904	0	0	0
197	1	1	18.90811001969338	16.77197085850967	59.06581048692295	0	0	0
198	1	1	19.85522002390685	16.759741585876636	59.38648646795307	0	0	0
199	1	1	20.80233002812032	16.47591340360454	59.536233597698114	0	0	0
200	1	1	21.74944003233379	16.463684130971508	59.856909578728235	0	0	0
201	1	1	22.69655003654726	16.179855948699412	60.00665670847328	0	0	0
202	1	1	23.643660040760732	16.16762667606638	60.3273326895034	0	0	0
203	1	1	24.590770044974203	15.883798493794286	60.477079819248445	0	0	0
204	1	1	25.537880049187674	15.871569221161254	60.797755800278566	0	0	0
205	1	1	26.484990053401145	15.58774103888916	60.94750293002361	0	0	0
206	1	1	27.432100057614615	15.575511766256128	61.26817891105373	0	0	0
207	1	1	28.379210061828086	15.291683583984033	61.417926040798775	0	0	0
208	1	1	29.326320066041557	15.279454311351001	61.738602021828896	0	0	0
209	1	1	30.273430070255028	14.995626129078907	61.88834915157394	0	0	0
210	1	1	31.2205400744685	14.983396856445875	62.20902513260406	0	0	0
211	1	1	32.167650078681966	14.699568674173781	62.358772262349106	0	0	0
212	1	1	33.11476008289544	14.687339401540749	62.67944824337923	0	0	0
213	1	1	34.06187008710891	14.403511219268655	62.82919537312427	0	0	0
214	1	1	35.00898009132238	14.391281946635623	63.14987135415439	0	0	0
215	1	1	35.95609009553585	14.107453764363528	63.29961848389944	0	0	0
216	1	1	36.90320009974932	14.095224491730496	63.62029446492956	0	0	0
217	1	1	37.85031010396279	13.811396309458402	63.7700415946746	0	0	0
218	1	1	3.1460212583975826	18.696546389671276	55.86805770372794	0	0	0
219	1	1	2.5376925645173	17.916416093248124	56.0141156401937	0	0	0
220	1	1	1.929363870637017	17.652840828440226	56.76275726339091	0	0	0
221	1	1	1.3210351767567343	16.872710532017074	56.90881519985667	0	0	0
222	1	1	0.7127064828764517	16.609135267209176	57.65745682305388	0	0	0
223	1	1	0.10437778899616901	15.829004970786023	57.803514759519636	0	0	0
224	1	1	-0.5039509048841136	15.565429705978126	58.552156382716845	0	0	0
225	1	1	-1.1122795987643963	14.785299409554973	58.698214319182604	0	0	0
226	1	1	-1.720608292644679	14.521724144747076	59.44685594237981	0	0	0
227	1	1	-2.328936986524962	13.741593848323923	59.59291387884557	0	0	0
228	1	1	-2.9372656804052446	13.478018583516025	60.34155550204278	0	0	0
229	1	1	-3.5455943742855274	12.697888287092873	60.48761343850854	0	0	0
230	1	1	-4.15392306816581	12.434313022284975	61.23625506170575	0	0	0
231	1	1	-4.762251762046092	11.654182725861823	61.38231299817151	0	0	0
232	1	1	-5.370580455926374	11.390607461053925	62.130954621368716	0	0	0
233	1	1	-5.978909149806657	10.610477164630773	62.277012557834475	0	0	0
234	1	1	-6.587237843686939	10.346901899822875	63.02565418103168	0	0	0
235	1	1	-7.195566537567221	9.566771603399722	63.17171211749744	0	0	0
236	1	1	-7.803895231447504	9.303196338591825	63.92035374069465	0	0	0
237	1	1	-8.412223925327787	8.523066042168672	64.0664116771604	0	0	0
238	1	1	-9.02055261920807	8.259490777360774	64.81505330035762	0	0	0
239	1	1	-9.628881313088353	7.479360480937623	64.96111123682337	0	0	0
240	1	1	-10.237210006968636	7.215785216129725	65.70975286002059	0	0	0
241	1	1	-10.84553870084892	6.4356549197065736	65.85581079648634	0	0	0
242	1	1	-11.453867394729203	6.172079654898676	66.60445241968355	0	0	0
243	1	1	-12.062196088609486	5.391949358475524	66.7505103561493	0	0	0
244	1	1	-12.67052478248977	5.1283740936676265	67.49915197934652	0	0	0
245	1	1	-13.278853476370053	4.348243797244475	67.64520991581227	0	0	0
246	1	1	-13.887182170250336	4.084668532436577	68.39385153900949	0	0	0
247	1	1	-14.495510864130619	3.3045382360134257	68.53990947547524	0	0	0
248	1	1	-15.103839558010902	3.040962971205528	69.28855109867246	0	0	0
249	1	1	-15.712168251891185	2.2608326747823764	69.43460903513821	0	0	0
250	1	1	-16.320496945771467	1.9972574099744786	70.18325065833542	0	0	0
251	1	1	-16.92882563965175	1.217127113551327	70.32930859480118	0	0	0
252	1	1	-17.53715433353203	0.9535518487434294	71.07795021799839	0	0	0
253	1	1	-18.14548302741231	0.17342155232027767	71.22400815446414	0	0	0
254	1	1	-17.671738186834027	-0.522947568973504	71.76311470509582	0	0	0
255	1	1	-17.197993346255743	-1.3955741937408037	71.88181011264255	0	0	0
256	1	1	-16.72424850567746	-1.7290942678764298	72.69687464148308	0	0	0
257	1	1	-16.250503665099174	-2.60172089264373	72.81557004902982	0	0	0
258	1	1	-15.77675882452089	-2.935240966779356	73.63063457787034	0	0	0
259	1	1	-15.303013983942606	-3.807867591546656	73.74932998541708	0	0	0
260	1	1	-14.829269143364321	-4.141387665682283	74.5643945142576	0	0	0
261	1	1	-14.355524302786037	-5.014014290449582	74.68308992180434	0	0	0
262	1	1	-13.881779462207753	-5.347534364585209	75.49815445064486	0	0	0
263	1	1	-13.408034621629469	-6.220160989352508	75.6168498581916	0	0	0
264	1	1	-12.934289781051184	-6.553681063488135	76.43191438703212	0	0	0
265	1	1	-12.4605449404729	-7.426307688255434	76.55060979457886	0	0	0
266	1	1	-11.986800099894616	-7.759827762391061	77.36567432341938	0	0	0
267	1	1	-11.513055259316332	-8.632454387158361	77.48436973096612	0	0	0
268	1	1	-11.039310418738047	-8.965974461293987	78.29943425980665	0	0	0
269	1	1	-10.565565578159763	-9.838601086061287	78.41812966735338	0	0	0
270	1	1	-10.091820737581479	-10.172121160196912	79.2331941961939	0	0	0
271	1	1	-9.618075897003195	-11.044747784964212	79.35188960374064	0	0	0
272	1	1	-9.14433105642491	-11.378267859099838	80.16695413258117	0	0	0
273	1	1	-8.670586215846626	-12.250894483867137	80.2856495401279	0	0	0
274	1	1	-8.196841375268342	-12.584414558002763	81.10071406896843	0	0	0
275	1	1	-7.7230965346900575	-13.457041182770062	81.21940947651517	0	0	0
276	1	1	-7.249351694111773	-13.790561256905688	82.03447400535569	0	0	0
277	1	1	-6.775606853533489	-14.663187881672988	82.15316941290243	0	0	0
278	1	1	-6.301862012955205	-14.996707955808613	82.96823394174295	0	0	0
279	1	1	-5.8281171723769205	-15.869334580575913	83.08692934928969	0	0	0
280	1	1	-5.354372331798636	-16.20285465471154	83.90199387813021	0	0	0
281	1	1	-4.880627491220352	-17.07548127947884	84.02068928567695	0	0	0
282	1	1	-4.406882650642068	-17.409001353614467	84.83575381451747	0	0	0
283	1	1	-3.933137810063784	-18.281627978381767	84.95444922206421	0	0	0
284	1	1	-3.4593929694855	-18.615148052517394	85.76951375090474	0	0	0
285	1	1	-2.9856481289072163	-19.487774677284694	85.88820915845147	0	0	0
286	1	1	-2.5119032883289325	-19.82129475142032	86.703273687292	0	0	0
287	1	1	-2.0381584477506487	-20.69392137618762	86.82196909483874	0	0	0
288	1	1	-1.5644136071723649	-21.02744145032325	87.63703362367926	0	0	0
289	1	1	-1.090668766594081	-21.900068075090548	87.755729031226	0	0	0
290	1	1	-18.41080832470783	-0.21295356399395599	70.34065275820043	0	0	0
291	1	1	-18.67613362200335	-0.10588653198039795	69.38245698630888	0	0	0
292	1	1	-18.941458919298867	-0.8821748962305443	68.81063633073155	0	0	0
293	1	1	-19.206784216594386	-0.7751078642169863	67.85244055884	0	0	0
294	1	1	-19.472109513889905	-1.5513962284671328	67.28061990326268	0	0	0
295	1	1	-19.737434811185423	-1.4443291964535747	66.32242413137112	0	0	0
296	1	1	-20.002760108480942	-2.220617560703721	65.7506034757938	0	0	0
297	1	1	-20.26808540577646	-2.1135505286901632	64.79240770390224	0	0	0
298	1	1	-20.53341070307198	-2.8898388929403094	64.22058704832492	0	0	0
299	1	1	-20.798736000367498	-2.7827718609267516	63.26239127643336	0	0	0
300	1	1	-21.064061297663017	-3.559060225176898	62.69057062085604	0	0	0
301	1	1	-21.329386594958535	-3.4519931931633403	61.73237484896449	0	0	0
302	1	1	-21.594711892254054	-4.228281557413487	61.16055419338717	0	0	0
303	1	1	-21.860037189549573	-4.121214525399929	60.20235842149562	0	0	0
304	1	1	-22.12536248684509	-4.897502889650076	59.6305377659183	0	0	0
305	1	1	-22.39068778414061	-4.790435857636518	58.672341994026745	0	0	0
306	1	1	-22.65601308143613	-5.566724221886664	58.100521338449425	0	0	0
307	1	1	-22.921338378731647	-5.4596571898731066	57.14232556655787	0	0	0
308	1	1	-23.186663676027166	-6.235945554123253	56.57050491098055	0	0	0
309	1	1	-23.451988973322685	-6.128878522109695	55.612309139089	0	0	0
310	1	1	-23.717314270618203	-6.905166886359842	55.04048848351168	0	0	0
311	1	1	-23.982639567913722	-6.798099854346284	54.08229271162013	0	0	0
312	1	1	-24.24796486520924	-7.574388218596431	53.51047205604281	0	0	0
313	1	1	-24.51329016250476	-7.467321186582873	52.552276284151255	0	0	0
314	1	1	-24.778615459800278	-8.24360955083302	51.980455628573935	0	0	0
315	1	1	-25.043940757095797	-8.13654251881946	51.02225985668238	0	0	0
316	1	1	-25.309266054391315	-8.912830883069606	50.45043920110506	0	0	0
317	1	1	-25.574591351686834	-8.805763851056048	49.49224342921351	0	0	0
318	1	1	-25.839916648982353	-9.582052215306193	48.92042277363619	0	0	0
319	1	1	-26.10524194627787	-9.474985183292635	47.96222700174464	0	0	0
320	1	1	-26.37056724357339	-10.25127354754278	47.39040634616732	0	0	0
321	1	1	-26.63589254086891	-10.144206515529222	46.432210574275764	0	0	0
322	1	1	-26.901217838164428	-10.920494879779367	45.860389918698445	0	0	0
323	1	1	-27.166543135459946	-10.813427847765809	44.90219414680689	0	0	0
324	1	1	-27.431868432755465	-11.589716212015954	44.33037349122957	0	0	0
325	1	1	-27.697193730050984	-11.482649180002396	43.37217771933802	0	0	0
326	1	1	-18.96309544275295	0.47492725780192374	71.71452242320956	0	0	0
327	1	1	-19.780707858093596	0.49078172376226803	72.29007309360266	0	0	0
328	1	1	-20.59832027343424	0.9971504584680337	72.56411805851411	0	0	0
329	1	1	-21.415932688774884	1.013004924428378	73.13966872890721	0	0	0
330	1	1	-22.233545104115528	1.5193736591341438	73.41371369381866	0	0	0
331	1	1	-23.051157519456172	1.5352281250944881	73.98926436421176	0	0	0
332	1	1	-23.868769934796816	2.041596859800254	74.26330932912322	0	0	0
333	1	1	-24.68638235013746	2.057451325760598	74.83885999951632	0	0	0
334	1	1	-25.503994765478105	2.5638200604663637	75.11290496442777	0	0	0
335	1	1	-26.32160718081875	2.579674526426708	75.68845563482087	0	0	0
336	1	1	-27.139219596159393	3.0860432611324735	75.96250059973232	0	0	0
337	1	1	-27.956832011500037	3.1018977270928176	76.53805127012542	0	0	0
338	1	1	-28.77444442684068	3.6082664617985833	76.81209623503688	0	0	0
339	1	1	-29.592056842181325	3.6241209277589275	77.38764690542997	0	0	0
340	1	1	-30.40966925752197	4.130489662464694	77.66169187034143	0	0	0
341	1	1	-31.227281672862613	4.146344128425038	78.23724254073453	0	0	0
342	1	1	-32.04489408820326	4.6527128631308035	78.51128750564598	0	0	0
343	1	1	-32.8625065035439	4.668567329091148	79.08683817603908	0	0	0
344	1	1	-33.68011891888454	5.174936063796913	79.36088314095053	0	0	0
345	1	1	-34.49773133422518	5.190790529757257	79.93643381134363	0	0	0
346	1	1	-35.31534374956582	5.697159264463023	80.21047877625509	0	0	0
347	1	1	-36.13295616490646	5.713013730423367	80.78602944664819	0	0	0
348	1	1	-36.9505685802471	6.219382465129133	81.06007441155964	0	0	0
349	1	1	-37.76818099558774	6.235236931089477	81.63562508195274	0	0	0
350	1	1	-38.58579341092838	6.741605665795243	81.90967004686419	0	0	0
351	1	1	-39.40340582626902	6.757460131755587	82.48522071725729	0	0	0
352	1	1	-40.22101824160966	7.263828866461353	82.75926568216875	0	0	0
353	1	1	-41.0386306569503	7.279683332421697	83.33481635256184	0	0	0
354	1	1	-41.856243072290944	7.7860520671274625	83.6088613174733	0	0	0
355	1	1	-42.673855487631585	7.801906533087807	84.1844119878664	0	0	0
356	1	1	-43.491467902972225	8.308275267793572	84.45845695277785	0	0	0
357	1	1	-44.309080318312866	8.324129733753917	85.03400762317095	0	0	0
358	1	1	-45.126692733653506	8.830498468459684	85.3080525880824	0	0	0
359	1	1	-45.94430514899415	8.846352934420029	85.8836032584755	0	0	0
360	1	1	-46.76191756433479	9.352721669125796	86.15764822338696	0	0	0
361	1	1	-47.57952997967543	9.36857613508614	86.73319889378006	0	0	0
362	1	1	-48.04975378487952	10.2439719537944	86.62107515139039	0	0	0
363	1	1	-48.51997759008362	11.05814884235727	86.96167105146768	0	0	0
364	1	1	-48.99020139528772	11.760201988530467	86.42687113283671	0	0	0
365	1	1	-49.46042520049182	12.574378877093338	86.767467032914	0	0	0
366	1	1	-49.93064900569592	13.276432023266535	86.23266711428303	0	0	0
367	1	1	-50.40087281090002	14.090608911829406	86.57326301436032	0	0	0
368	1	1	-50.87109661610412	14.792662058002604	86.03846309572936	0	0	0
369	1	1	-51.34132042130822	15.606838946565475	86.37905899580664	0	0	0
370	1	1	-51.81154422651232	16.308892092738674	85.84425907717568	0	0	0
371	1	1	-52.28176803171642	17.123068981301543	86.18485497725297	0	0	0
372	1	1	-52.75199183692052	17.825122127474742	85.650055058622	0	0	0
373	1	1	-53.22221564212462	18.63929901603761	85.99065095869929	0	0	0
374	1	1	-53.69243944732872	19.34135216221081	85.45585104006832	0	0	0
375	1	1	-54.162663252532816	20.15552905077368	85.79644694014561	0	0	0
376	1	1	-54.632887057736916	20.85758219694688	85.26164702151465	0	0	0
377	1	1	-55.103110862941016	21.67175908550975	85.60224292159194	0	0	0
378	1	1	-55.573334668145115	22.373812231682948	85.06744300296097	0	0	0
379	1	1	-56.043558473349215	23.187989120245817	85.40803890303826	0	0	0
380	1	1	-56.513782278553315	23.890042266419016	84.8732389844073	0	0	0
381	1	1	-56.984006083757414	24.704219154981885	85.21383488448458	0	0	0
382	1	1	-57.454229888961514	25.406272301155084	84.67903496585362	0	0	0
383	1	1	-57.924453694165614	26.220449189717954	85.0196308659309	0	0	0
384	1	1	-58.39467749936971	26.922502335891153	84.48483094729994	0	0	0
385	1	1	-58.86490130457381	27.736679224454022	84.82542684737723	0	0	0
386	1	1	-59.33512510977791	28.43873237062722	84.29062692874626	0	0	0
387	1	1	-59.80534891498201	29.25290925919009	84.63122282882355	0	0	0
388	1	1	-60.27557272018611	29.95496240536329	84.09642291019259	0	0	0
389	1	1	-60.74579652539021	30.76913929392616	84.43701881026988	0	0	0
390	1	1	-61.21602033059431	31.471192440099358	83.90221889163891	0	0	0
391	1	1	-61.68624413579841	32.28536932866223	84.2428147917162	0	0	0
392	1	1	-62.15646794100251	32.98742247483543	83.70801487308523	0	0	0
393	1	1	-62.62669174620661	33.801599363398296	84.04861077316252	0	0	0
394	1	1	-63.09691555141071	34.503652509571495	83.51381085453156	0	0	0
395	1	1	-63.56713935661481	35.317829398134364	83.85440675460885	0	0	0
396	1	1	-64.0373631618189	36.01988254430756	83.31960683597788	0	0	0
397	1	1	-64.507586967023	36.83405943287043	83.66020273605517	0	0	0
398	1	1	-47.31593191874447	9.252587587914915	87.69083281088959	0	0	0
399	1	1	-47.0523338578135	8.673321600961817	88.46217383704644	0	0	0
400	1	1	-46.788735796882534	9.05168953111825	89.34950341037451	0	0	0
401	1	1	-46.52513773595157	8.472423544165151	90.12084443653136	0	0	0
402	1	1	-46.2615396750206	8.850791474321584	91.00817400985943	0	0	0
403	1	1	-45.99794161408963	8.271525487368486	91.77951503601628	0	0	0
404	1	1	-45.734343553158666	8.649893417524918	92.66684460934435	0	0	0
405	1	1	-45.4707454922277	8.07062743057182	93.4381856355012	0	0	0
406	1	1	-45.20714743129673	8.448995360728253	94.32551520882927	0	0	0
407	1	1	-44.943549370365766	7.869729373775155	95.09685623498612	0	0	0
408	1	1	-44.6799513094348	8.248097303931589	95.9841858083142	0	0	0
409	1	1	-44.41635324850383	7.668831316978491	96.75552683447104	0	0	0
410	1	1	-44.152755187572865	8.047199247134925	97.64285640779912	0	0	0
411	1	1	-43.8891571266419	7.467933260181828	98.41419743395596	0	0	0
412	1	1	-43.62555906571093	7.846301190338261	99.30152700728404	0	0	0
413	1	1	-43.361961004779964	7.267035203385164	100.07286803344088	0	0	0
414	1	1	-43.098362943849	7.645403133541597	100.96019760676896	0	0	0
415	1	1	-42.83476488291803	7.0661371465885	101.7315386329258	0	0	0
416	1	1	-42.57116682198706	7.4445050767449334	102.61886820625388	0	0	0
417	1	1	-42.307568761056096	6.865239089791836	103.39020923241073	0	0	0
418	1	1	-42.04397070012513	7.24360701994827	104.2775388057388	0	0	0
419	1	1	-41.78037263919416	6.664341032995172	105.04887983189565	0	0	0
420	1	1	-41.516774578263195	7.042708963151606	105.93620940522372	0	0	0
421	1	1	-41.25317651733223	6.463442976198508	106.70755043138057	0	0	0
422	1	1	-40.98957845640126	6.841810906354942	107.59488000470864	0	0	0
423	1	1	-40.725980395470295	6.2625449194018445	108.36622103086549	0	0	0
424	1	1	-40.46238233453933	6.640912849558278	109.25355060419356	0	0	0
425	1	1	-40.19878427360836	6.061646862605181	110.02489163035041	0	0	0
426	1	1	-39.935186212677394	6.440014792761614	110.91222120367848	0	0	0
427	1	1	-39.67158815174643	5.860748805808517	111.68356222983533	0	0	0
428	1	1	-39.40799009081546	6.23911673596495	112.5708918031634	0	0	0
429	1	1	-39.14439202988449	5.659850749011853	113.34223282932025	0	0	0
430	1	1	-38.880793968953526	6.038218679168287	114.22956240264833	0	0	0
431	1	1	-38.61719590802256	5.458952692215189	115.00090342880517	0	0	0
432	1	1	-38.35359784709159	5.837320622371623	115.88823300213325	0	0	0
433	1	1	-38.089999786160625	5.258054635418525	116.6595740282901	0	0	0
434	1	1	-48.191678132708475	8.62504585201026	86.46405700390166	0	0	0
435	1	1	-48.80382628574152	8.11570068332271	85.85920814850647	0	0	0
436	1	1	-49.41597443877457	7.337213624756757	85.99788957618716	0	0	0
437	1	1	-50.028122591807616	6.827868456069208	85.39304072079197	0	0	0
438	1	1	-50.64027074484066	6.049381397503254	85.53172214847267	0	0	0