bb400nuc7bl50bn4d30tot1100V2

1101 atoms
1100 bonds
1120 angles

1 atom types
1 bond types
1 angle types

-1000 1000 xlo xhi
-1000 1000 ylo yhi
-1000 1000 zlo zhi

Masses

1 1

Atoms

1	1	1	0.0	0.0	0.0	0	0	0
2	1	1	0.0	0.0	1.0	0	0	0
3	1	1	0.0	-0.49999999999999994	1.8660254037844388	0	0	0
4	1	1	0.0	0.0	2.7320508075688776	0	0	0
5	1	1	0.0	-0.49999999999999994	3.5980762113533165	0	0	0
6	1	1	0.0	0.0	4.464101615137755	0	0	0
7	1	1	0.0	-0.49999999999999994	5.330127018922194	0	0	0
8	1	1	0.0	0.0	6.196152422706632	0	0	0
9	1	1	0.0	-0.49999999999999994	7.06217782649107	0	0	0
10	1	1	0.0	0.0	7.928203230275509	0	0	0
11	1	1	0.0	-0.49999999999999994	8.794228634059948	0	0	0
12	1	1	0.0	0.0	9.660254037844387	0	0	0
13	1	1	0.0	-0.49999999999999994	10.526279441628827	0	0	0
14	1	1	0.0	0.0	11.392304845413266	0	0	0
15	1	1	0.0	-0.49999999999999994	12.258330249197705	0	0	0
16	1	1	0.0	0.0	13.124355652982144	0	0	0
17	1	1	0.0	-0.49999999999999994	13.990381056766584	0	0	0
18	1	1	0.0	0.0	14.856406460551023	0	0	0
19	1	1	0.0	-0.49999999999999994	15.722431864335462	0	0	0
20	1	1	0.0	0.0	16.5884572681199	0	0	0
21	1	1	0.0	-0.49999999999999994	17.454482671904337	0	0	0
22	1	1	0.0	0.0	18.320508075688775	0	0	0
23	1	1	0.0	-0.49999999999999994	19.186533479473212	0	0	0
24	1	1	0.0	0.0	20.05255888325765	0	0	0
25	1	1	0.0	-0.49999999999999994	20.918584287042087	0	0	0
26	1	1	0.0	0.0	21.784609690826525	0	0	0
27	1	1	0.0	-0.49999999999999994	22.650635094610962	0	0	0
28	1	1	0.0	0.0	23.5166604983954	0	0	0
29	1	1	0.0	-0.49999999999999994	24.382685902179837	0	0	0
30	1	1	0.0	0.0	25.248711305964274	0	0	0
31	1	1	0.0	-0.49999999999999994	26.114736709748712	0	0	0
32	1	1	0.0	0.0	26.98076211353315	0	0	0
33	1	1	0.0	-0.49999999999999994	27.846787517317587	0	0	0
34	1	1	0.0	0.0	28.712812921102024	0	0	0
35	1	1	0.0	-0.49999999999999994	29.578838324886462	0	0	0
36	1	1	0.0	0.0	30.4448637286709	0	0	0
37	1	1	0.0	-0.49999999999999994	31.310889132455337	0	0	0
38	1	1	0.0	0.0	32.17691453623978	0	0	0
39	1	1	0.0	-0.49999999999999994	33.04293994002422	0	0	0
40	1	1	0.0	0.0	33.90896534380866	0	0	0
41	1	1	0.0	-0.49999999999999994	34.7749907475931	0	0	0
42	1	1	0.0	0.0	35.64101615137754	0	0	0
43	1	1	0.0	-0.49999999999999994	36.50704155516198	0	0	0
44	1	1	0.0	0.0	37.373066958946424	0	0	0
45	1	1	0.0	-0.49999999999999994	38.239092362730865	0	0	0
46	1	1	0.0	0.0	39.105117766515306	0	0	0
47	1	1	0.0	-0.49999999999999994	39.97114317029975	0	0	0
48	1	1	0.0	0.0	40.83716857408419	0	0	0
49	1	1	0.0	-0.49999999999999994	41.70319397786863	0	0	0
50	1	1	0.0	0.0	42.56921938165307	0	0	0
51	1	1	0.0	-0.49999999999999994	43.43524478543751	0	0	0
52	1	1	0.444678087526599	-1.3867129769289728	43.30874776958556	0	0	0
53	1	1	0.8893561750531971	-2.09138043288881	42.75584165189036	0	0	0
54	1	1	1.3340342625797952	-2.9225449047006	43.08964851112413	0	0	0
55	1	1	1.7787123501063933	-3.6272123606604376	42.53674239342893	0	0	0
56	1	1	2.2233904376329914	-4.4583768324722275	42.870549252662705	0	0	0
57	1	1	2.6680685251595895	-5.163044288432065	42.317643134967504	0	0	0
58	1	1	3.1127466126861876	-5.994208760243855	42.65144999420128	0	0	0
59	1	1	3.5574247002127857	-6.698876216203693	42.09854387650608	0	0	0
60	1	1	4.002102787739384	-7.530040688015482	42.43235073573985	0	0	0
61	1	1	4.446780875265982	-8.23470814397532	41.87944461804465	0	0	0
62	1	1	4.89145896279258	-9.06587261578711	42.213251477278426	0	0	0
63	1	1	5.336137050319178	-9.770540071746948	41.660345359583225	0	0	0
64	1	1	5.780815137845776	-10.60170454355874	41.994152218817	0	0	0
65	1	1	6.225493225372374	-11.306371999518577	41.4412461011218	0	0	0
66	1	1	6.670171312898972	-12.137536471330368	41.77505296035557	0	0	0
67	1	1	7.1148494004255705	-12.842203927290205	41.22214684266037	0	0	0
68	1	1	7.559527487952169	-13.673368399101996	41.55595370189415	0	0	0
69	1	1	8.004205575478768	-14.378035855061833	41.003047584198946	0	0	0
70	1	1	8.448883663005365	-15.209200326873624	41.33685444343272	0	0	0
71	1	1	8.893561750531962	-15.913867782833462	40.78394832573752	0	0	0
72	1	1	9.33823983805856	-16.745032254645253	41.117755184971294	0	0	0
73	1	1	9.782917925585156	-17.44969971060509	40.56484906727609	0	0	0
74	1	1	10.227596013111754	-18.280864182416877	40.89865592650987	0	0	0
75	1	1	10.67227410063835	-18.985531638376713	40.345749808814666	0	0	0
76	1	1	11.116952188164948	-19.816696110188502	40.67955666804844	0	0	0
77	1	1	11.561630275691545	-20.521363566148338	40.12665055035324	0	0	0
78	1	1	12.006308363218142	-21.352528037960127	40.460457409587015	0	0	0
79	1	1	12.45098645074474	-22.057195493919963	39.907551291891814	0	0	0
80	1	1	12.895664538271337	-22.888359965731752	40.24135815112559	0	0	0
81	1	1	13.340342625797934	-23.593027421691588	39.68845203343039	0	0	0
82	1	1	13.785020713324531	-24.424191893503377	40.02225889266416	0	0	0
83	1	1	14.229698800851128	-25.128859349463212	39.46935277496896	0	0	0
84	1	1	14.674376888377726	-25.960023821275	39.803159634202736	0	0	0
85	1	1	15.119054975904323	-26.664691277234837	39.250253516507534	0	0	0
86	1	1	15.56373306343092	-27.495855749046626	39.58406037574131	0	0	0
87	1	1	16.008411150957517	-28.200523205006462	39.03115425804611	0	0	0
88	1	1	16.453089238484115	-29.03168767681825	39.36496111727988	0	0	0
89	1	1	16.89776732601071	-29.736355132778087	38.81205499958468	0	0	0
90	1	1	17.34244541353731	-30.567519604589876	39.145861858818456	0	0	0
91	1	1	17.787123501063906	-31.27218706054971	38.592955741123255	0	0	0
92	1	1	18.231801588590503	-32.1033515323615	38.92676260035703	0	0	0
93	1	1	18.6764796761171	-32.80801898832134	38.37385648266183	0	0	0
94	1	1	19.121157763643698	-33.639183460133125	38.7076633418956	0	0	0
95	1	1	19.565835851170295	-34.34385091609296	38.1547572242004	0	0	0
96	1	1	20.010513938696892	-35.17501538790475	38.48856408343418	0	0	0
97	1	1	20.45519202622349	-35.879682843864586	37.935657965738976	0	0	0
98	1	1	20.899870113750087	-36.710847315676375	38.26946482497275	0	0	0
99	1	1	21.344548201276684	-37.41551477163621	37.71655870727755	0	0	0
100	1	1	21.78922628880328	-38.246679243448	38.050365566511324	0	0	0
101	1	1	22.23390437632988	-38.951346699407836	37.49745944881612	0	0	0
102	1	1	-0.9421485910753863	-0.6405072216057875	43.739569863292246	0	0	0
103	1	1	-1.8842971821507706	-0.9143525838589364	43.932869500920226	0	0	0
104	1	1	-2.8264457732261548	-0.8838728682573508	44.266676360153994	0	0	0
105	1	1	-3.7685943643015394	-1.1577182305104996	44.459975997781974	0	0	0
106	1	1	-4.710742955376924	-1.127238514908914	44.79378285701574	0	0	0
107	1	1	-5.652891546452309	-1.4010838771620626	44.98708249464372	0	0	0
108	1	1	-6.595040137527693	-1.370604161560477	45.32088935387749	0	0	0
109	1	1	-7.537188728603078	-1.6444495238136256	45.51418899150547	0	0	0
110	1	1	-8.479337319678462	-1.61396980821204	45.84799585073924	0	0	0
111	1	1	-9.421485910753846	-1.8878151704651887	46.04129548836722	0	0	0
112	1	1	-10.36363450182923	-1.857335454863603	46.375102347600986	0	0	0
113	1	1	-11.305783092904614	-2.1311808171167517	46.56840198522897	0	0	0
114	1	1	-12.247931683979997	-2.100701101515166	46.902208844462734	0	0	0
115	1	1	-13.190080275055381	-2.374546463768315	47.095508482090715	0	0	0
116	1	1	-14.132228866130765	-2.344066748166729	47.42931534132448	0	0	0
117	1	1	-15.074377457206149	-2.617912110419878	47.62261497895246	0	0	0
118	1	1	-16.016526048281534	-2.5874323948182925	47.95642183818623	0	0	0
119	1	1	-16.958674639356918	-2.8612777570714414	48.14972147581421	0	0	0
120	1	1	-17.9008232304323	-2.8307980414698557	48.48352833504798	0	0	0
121	1	1	-18.842971821507685	-3.1046434037230046	48.67682797267596	0	0	0
122	1	1	-19.78512041258307	-3.074163688121419	49.01063483190973	0	0	0
123	1	1	-20.727269003658453	-3.348009050374568	49.20393446953771	0	0	0
124	1	1	-21.669417594733837	-3.317529334772982	49.537741328771475	0	0	0
125	1	1	-22.61156618580922	-3.591374697026131	49.731040966399455	0	0	0
126	1	1	-23.553714776884604	-3.5608949814245454	50.06484782563322	0	0	0
127	1	1	-24.495863367959988	-3.8347403436776943	50.2581474632612	0	0	0
128	1	1	-25.43801195903537	-3.8042606280761087	50.59195432249497	0	0	0
129	1	1	-26.380160550110755	-4.078105990329258	50.78525396012295	0	0	0
130	1	1	-27.32230914118614	-4.047626274727672	51.11906081935672	0	0	0
131	1	1	-28.264457732261523	-4.321471636980821	51.3123604569847	0	0	0
132	1	1	-29.206606323336906	-4.290991921379235	51.64616731621847	0	0	0
133	1	1	-30.14875491441229	-4.564837283632384	51.83946695384645	0	0	0
134	1	1	-31.090903505487674	-4.534357568030798	52.173273813080215	0	0	0
135	1	1	-32.03305209656306	-4.808202930283947	52.366573450708195	0	0	0
136	1	1	-32.97520068763845	-4.777723214682362	52.70038030994196	0	0	0
137	1	1	-33.917349278713836	-5.0515685769355105	52.89367994756994	0	0	0
138	1	1	-34.85949786978922	-5.021088861333925	53.22748680680371	0	0	0
139	1	1	-35.80164646086461	-5.294934223587074	53.42078644443169	0	0	0
140	1	1	-36.74379505194	-5.264454507985488	53.75459330366546	0	0	0
141	1	1	-37.685943643015385	-5.538299870238637	53.94789294129344	0	0	0
142	1	1	-38.62809223409077	-5.507820154637051	54.28169980052721	0	0	0
143	1	1	-39.57024082516616	-5.7816655168902	54.47499943815519	0	0	0
144	1	1	-40.51238941624155	-5.751185801288615	54.808806297388955	0	0	0
145	1	1	-41.454538007316934	-6.0250311635417635	55.002105935016935	0	0	0
146	1	1	-42.39668659839232	-5.994551447940178	55.3359127942507	0	0	0
147	1	1	-43.33883518946771	-6.268396810193327	55.52921243187868	0	0	0
148	1	1	-44.280983780543096	-6.237917094591741	55.86301929111245	0	0	0
149	1	1	-45.22313237161848	-6.51176245684489	56.05631892874043	0	0	0
150	1	1	-46.16528096269387	-6.481282741243304	56.3901257879742	0	0	0
151	1	1	-47.10742955376926	-6.755128103496453	56.58342542560218	0	0	0
152	1	1	0.49747050354879413	0.026509909684104216	44.124672383596554	0	0	0
153	1	1	0.9949410070975874	0.13776706773526626	44.98498915251443	0	0	0
154	1	1	1.4924115106463807	0.9384518239454719	45.3187960117482	0	0	0
155	1	1	1.9898820141951739	1.0497089819966339	46.179112780666074	0	0	0
156	1	1	2.4873525177439673	1.8503937382068396	46.51291963989984	0	0	0
157	1	1	2.9848230212927604	1.9616508962580017	47.37323640881772	0	0	0
158	1	1	3.4822935248415536	2.7623356524682072	47.707043268051486	0	0	0
159	1	1	3.979764028390347	2.8735928105193693	48.56736003696936	0	0	0
160	1	1	4.47723453193914	3.674277566729575	48.90116689620313	0	0	0
161	1	1	4.974705035487934	3.785534724780737	49.761483665121006	0	0	0
162	1	1	5.472175539036727	4.586219480990943	50.09529052435477	0	0	0
163	1	1	5.969646042585521	4.6974766390421046	50.95560729327265	0	0	0
164	1	1	6.4671165461343145	5.4981613952523105	51.28941415250642	0	0	0
165	1	1	6.964587049683108	5.609418553303472	52.14973092142429	0	0	0
166	1	1	7.462057553231902	6.410103309513678	52.48353778065806	0	0	0
167	1	1	7.959528056780695	6.52136046756484	53.34385454957594	0	0	0
168	1	1	8.456998560329488	7.322045223775046	53.677661408809705	0	0	0
169	1	1	8.954469063878282	7.433302381826207	54.53797817772758	0	0	0
170	1	1	9.451939567427075	8.233987138036413	54.87178503696135	0	0	0
171	1	1	9.949410070975869	8.345244296087575	55.732101805879225	0	0	0
172	1	1	10.446880574524663	9.145929052297781	56.06590866511299	0	0	0
173	1	1	10.944351078073456	9.257186210348943	56.92622543403087	0	0	0
174	1	1	11.44182158162225	10.057870966559149	57.260032293264636	0	0	0
175	1	1	11.939292085171044	10.16912812461031	58.12034906218251	0	0	0
176	1	1	12.436762588719837	10.969812880820516	58.45415592141628	0	0	0
177	1	1	12.93423309226863	11.081070038871678	59.314472690334156	0	0	0
178	1	1	13.431703595817424	11.881754795081884	59.648279549567924	0	0	0
179	1	1	13.929174099366218	11.993011953133045	60.5085963184858	0	0	0
180	1	1	14.426644602915012	12.793696709343251	60.84240317771957	0	0	0
181	1	1	14.924115106463805	12.904953867394413	61.702719946637444	0	0	0
182	1	1	15.421585610012599	13.705638623604619	62.03652680587121	0	0	0
183	1	1	15.919056113561393	13.81689578165578	62.89684357478909	0	0	0
184	1	1	16.416526617110186	14.617580537865987	63.230650434022856	0	0	0
185	1	1	16.91399712065898	14.728837695917148	64.09096720294073	0	0	0
186	1	1	17.411467624207773	15.529522452127354	64.4247740621745	0	0	0
187	1	1	17.908938127756567	15.640779610178516	65.28509083109238	0	0	0
188	1	1	18.40640863130536	16.441464366388722	65.61889769032615	0	0	0
189	1	1	18.903879134854154	16.552721524439885	66.47921445924402	0	0	0
190	1	1	19.401349638402948	17.35340628065009	66.8130213184778	0	0	0
191	1	1	19.89882014195174	17.464663438701255	67.67333808739566	0	0	0
192	1	1	20.396290645500535	18.26534819491146	68.00714494662944	0	0	0
193	1	1	20.89376114904933	18.376605352962624	68.86746171554731	0	0	0
194	1	1	21.391231652598123	19.17729010917283	69.20126857478108	0	0	0
195	1	1	21.888702156146916	19.288547267223993	70.06158534369895	0	0	0
196	1	1	22.38617265969571	20.0892320234342	70.39539220293273	0	0	0
197	1	1	22.883643163244503	20.200489181485363	71.2557089718506	0	0	0
198	1	1	23.381113666793297	21.00117393769557	71.58951583108437	0	0	0
199	1	1	23.87858417034209	21.112431095746732	72.44983260000224	0	0	0
200	1	1	24.376054673890884	21.91311585195694	72.78363945923601	0	0	0
201	1	1	24.873525177439678	22.0243730100081	73.64395622815388	0	0	0
202	1	1	25.52345564517493	21.272301357876295	73.75340309731496	0	0	0
203	1	1	26.173386112910187	20.566264767083474	73.47215104030722	0	0	0
204	1	1	26.823316580645443	19.969675045451734	73.9429706354313	0	0	0
205	1	1	27.4732470483807	19.263638454658913	73.66171857842356	0	0	0
206	1	1	28.123177516115955	18.667048733027173	74.13253817354763	0	0	0
207	1	1	28.77310798385121	17.961012142234352	73.8512861165399	0	0	0
208	1	1	29.423038451586468	17.36442242060261	74.32210571166397	0	0	0
209	1	1	30.072968919321724	16.65838582980979	74.04085365465623	0	0	0
210	1	1	30.72289938705698	16.06179610817805	74.5116732497803	0	0	0
211	1	1	31.372829854792236	15.35575951738523	74.23042119277257	0	0	0
212	1	1	32.02276032252749	14.759169795753492	74.70124078789664	0	0	0
213	1	1	32.67269079026274	14.053133204960671	74.4199887308889	0	0	0
214	1	1	33.322621257997994	13.456543483328932	74.89080832601297	0	0	0
215	1	1	33.97255172573325	12.750506892536112	74.60955626900524	0	0	0
216	1	1	34.6224821934685	12.153917170904373	75.08037586412931	0	0	0
217	1	1	35.27241266120375	11.447880580111553	74.79912380712157	0	0	0
218	1	1	35.922343128939005	10.851290858479814	75.26994340224564	0	0	0
219	1	1	36.57227359667426	10.145254267686994	74.98869134523791	0	0	0
220	1	1	37.22220406440951	9.548664546055255	75.45951094036198	0	0	0
221	1	1	37.87213453214476	8.842627955262435	75.17825888335425	0	0	0
222	1	1	38.522064999880016	8.246038233630696	75.64907847847832	0	0	0
223	1	1	39.17199546761527	7.5400016428378756	75.36782642147058	0	0	0
224	1	1	39.82192593535052	6.943411921206136	75.83864601659465	0	0	0
225	1	1	40.47185640308577	6.2373753304133155	75.55739395958692	0	0	0
226	1	1	41.121786870821026	5.6407856087815755	76.02821355471099	0	0	0
227	1	1	41.77171733855628	4.934749017988755	75.74696149770325	0	0	0
228	1	1	42.42164780629153	4.3381592963570155	76.21778109282732	0	0	0
229	1	1	43.071578274026784	3.6321227055641954	75.93652903581959	0	0	0
230	1	1	43.72150874176204	3.0355329839324554	76.40734863094366	0	0	0
231	1	1	44.37143920949729	2.3294963931396353	76.12609657393592	0	0	0
232	1	1	45.02136967723254	1.7329066715078956	76.59691616906	0	0	0
233	1	1	45.671300144967795	1.0268700807150755	76.31566411205226	0	0	0
234	1	1	46.32123061270305	0.43028035908333573	76.78648370717633	0	0	0
235	1	1	46.9711610804383	-0.2757562317094844	76.5052316501686	0	0	0
236	1	1	47.62109154817355	-0.8723459533412241	76.97605124529267	0	0	0
237	1	1	48.271022015908805	-1.5783825441340442	76.69479918828493	0	0	0
238	1	1	48.92095248364406	-2.174972265765784	77.165618783409	0	0	0
239	1	1	49.57088295137931	-2.881008856558604	76.88436672640127	0	0	0
240	1	1	50.22081341911456	-3.477598578190344	77.35518632152534	0	0	0
241	1	1	50.870743886849816	-4.183635168983164	77.0739342645176	0	0	0
242	1	1	51.52067435458507	-4.780224890614904	77.54475385964167	0	0	0
243	1	1	52.17060482232032	-5.486261481407724	77.26350180263394	0	0	0
244	1	1	52.820535290055574	-6.082851203039464	77.73432139775801	0	0	0
245	1	1	53.470465757790826	-6.788887793832284	77.45306934075028	0	0	0
246	1	1	54.12039622552608	-7.385477515464024	77.92388893587434	0	0	0
247	1	1	54.77032669326133	-8.091514106256845	77.64263687886661	0	0	0
248	1	1	55.420257160996584	-8.688103827888584	78.11345647399068	0	0	0
249	1	1	56.07018762873184	-9.394140418681404	77.83220441698295	0	0	0
250	1	1	56.72011809646709	-9.990730140313143	78.30302401210702	0	0	0
251	1	1	57.37004856420234	-10.696766731105964	78.02177195509928	0	0	0
252	1	1	24.22676754021761	22.019033859413476	74.40663312708675	0	0	0
253	1	1	23.580009902995545	21.633071569897467	75.06446112114483	0	0	0
254	1	1	22.93325226577348	22.009786179314325	75.72762826579755	0	0	0
255	1	1	22.286494628551413	21.623823889798317	76.38545625985563	0	0	0
256	1	1	21.639736991329347	22.000538499215175	77.04862340450835	0	0	0
257	1	1	20.99297935410728	21.614576209699166	77.70645139856643	0	0	0
258	1	1	20.346221716885214	21.991290819116024	78.36961854321915	0	0	0
259	1	1	19.699464079663148	21.605328529600015	79.02744653727723	0	0	0
260	1	1	19.05270644244108	21.982043139016874	79.69061368192995	0	0	0
261	1	1	18.405948805219015	21.596080849500865	80.34844167598803	0	0	0
262	1	1	17.75919116799695	21.972795458917723	81.01160882064075	0	0	0
263	1	1	17.112433530774883	21.586833169401714	81.66943681469883	0	0	0
264	1	1	16.465675893552817	21.963547778818572	82.33260395935154	0	0	0
265	1	1	15.818918256330749	21.577585489302564	82.99043195340963	0	0	0
266	1	1	15.17216061910868	21.954300098719422	83.65359909806234	0	0	0
267	1	1	14.525402981886613	21.568337809203413	84.31142709212043	0	0	0
268	1	1	13.878645344664545	21.94505241862027	84.97459423677314	0	0	0
269	1	1	13.231887707442477	21.559090129104263	85.63242223083122	0	0	0
270	1	1	12.585130070220409	21.93580473852112	86.29558937548394	0	0	0
271	1	1	11.93837243299834	21.549842449005112	86.95341736954202	0	0	0
272	1	1	11.291614795776272	21.92655705842197	87.61658451419474	0	0	0
273	1	1	10.644857158554204	21.54059476890596	88.27441250825282	0	0	0
274	1	1	9.998099521332136	21.91730937832282	88.93757965290554	0	0	0
275	1	1	9.351341884110068	21.53134708880681	89.59540764696362	0	0	0
276	1	1	8.704584246888	21.90806169822367	90.25857479161634	0	0	0
277	1	1	8.057826609665932	21.52209940870766	90.91640278567442	0	0	0
278	1	1	7.411068972443864	21.89881401812452	91.57956993032714	0	0	0
279	1	1	6.764311335221796	21.51285172860851	92.23739792438522	0	0	0
280	1	1	6.117553697999728	21.889566338025368	92.90056506903794	0	0	0
281	1	1	5.47079606077766	21.50360404850936	93.55839306309602	0	0	0
282	1	1	4.824038423555592	21.880318657926217	94.22156020774874	0	0	0
283	1	1	4.177280786333524	21.49435636841021	94.87938820180682	0	0	0
284	1	1	3.5305231491114566	21.871070977827067	95.54255534645954	0	0	0
285	1	1	2.883765511889389	21.48510868831106	96.20038334051762	0	0	0
286	1	1	2.2370078746673214	21.861823297727916	96.86355048517034	0	0	0
287	1	1	1.5902502374452538	21.475861008211908	97.52137847922842	0	0	0
288	1	1	0.9434926002231863	21.852575617628766	98.18454562388114	0	0	0
289	1	1	0.2967349630011187	21.466613328112757	98.84237361793922	0	0	0
290	1	1	-0.3500226742209489	21.843327937529615	99.50554076259193	0	0	0
291	1	1	-0.9967803114430165	21.457365648013607	100.16336875665002	0	0	0
292	1	1	-1.643537948665084	21.834080257430465	100.82653590130273	0	0	0
293	1	1	-2.2902955858871517	21.448117967914456	101.48436389536081	0	0	0
294	1	1	-2.9370532231092192	21.824832577331314	102.14753104001353	0	0	0
295	1	1	-3.583810860331287	21.438870287815305	102.80535903407161	0	0	0
296	1	1	-4.230568497553355	21.815584897232164	103.46852617872433	0	0	0
297	1	1	-4.877326134775423	21.429622607716155	104.12635417278241	0	0	0
298	1	1	-5.524083771997491	21.806337217133013	104.78952131743513	0	0	0
299	1	1	-6.170841409219559	21.420374927617004	105.44734931149321	0	0	0
300	1	1	-6.817599046441627	21.797089537033862	106.11051645614593	0	0	0
301	1	1	-7.464356683663695	21.411127247517854	106.76834445020401	0	0	0
302	1	1	25.368529545979676	22.893199020223534	73.6333713757958	0	0	0
303	1	1	25.863533914519675	23.65091684271782	74.05861762986612	0	0	0
304	1	1	26.358538283059673	24.398049812854026	73.615037873721	0	0	0
305	1	1	26.85354265159967	25.15576763534831	74.04028412779131	0	0	0
306	1	1	27.34854702013967	25.90290060548452	73.59670437164618	0	0	0
307	1	1	27.843551388679668	26.660618427978804	74.0219506257165	0	0	0
308	1	1	28.338555757219666	27.40775139811501	73.57837086957137	0	0	0
309	1	1	28.833560125759664	28.165469220609296	74.00361712364169	0	0	0
310	1	1	29.328564494299663	28.912602190745503	73.56003736749656	0	0	0
311	1	1	29.82356886283966	29.670320013239788	73.98528362156688	0	0	0
312	1	1	30.31857323137966	30.417452983375995	73.54170386542175	0	0	0
313	1	1	30.813577599919658	31.17517080587028	73.96695011949207	0	0	0
314	1	1	31.308581968459656	31.922303776006487	73.52337036334694	0	0	0
315	1	1	31.803586336999654	32.68002159850077	73.94861661741726	0	0	0
316	1	1	32.29859070553965	33.42715456863698	73.50503686127213	0	0	0
317	1	1	32.793595074079654	34.184872391131265	73.93028311534245	0	0	0
318	1	1	33.288599442619656	34.93200536126747	73.48670335919732	0	0	0
319	1	1	33.78360381115966	35.68972318376176	73.91194961326764	0	0	0
320	1	1	34.27860817969966	36.43685615389796	73.46836985712251	0	0	0
321	1	1	34.77361254823966	37.19457397639225	73.89361611119283	0	0	0
322	1	1	35.26861691677966	37.941706946528456	73.4500363550477	0	0	0
323	1	1	35.763621285319665	38.69942476902274	73.87528260911802	0	0	0
324	1	1	36.25862565385967	39.44655773915895	73.43170285297289	0	0	0
325	1	1	36.75363002239967	40.20427556165323	73.8569491070432	0	0	0
326	1	1	37.24863439093967	40.95140853178944	73.41336935089808	0	0	0
327	1	1	37.74363875947967	41.709126354283725	73.8386156049684	0	0	0
328	1	1	38.238643128019675	42.45625932441993	73.39503584882327	0	0	0
329	1	1	38.733647496559676	43.21397714691422	73.82028210289359	0	0	0
330	1	1	39.22865186509968	43.961110117050424	73.37670234674846	0	0	0
331	1	1	39.72365623363968	44.71882793954471	73.80194860081878	0	0	0
332	1	1	40.21866060217968	45.465960909680916	73.35836884467365	0	0	0
333	1	1	40.713664970719684	46.2236787321752	73.78361509874397	0	0	0
334	1	1	41.208669339259686	46.97081170231141	73.34003534259884	0	0	0
335	1	1	41.70367370779969	47.728529524805694	73.76528159666915	0	0	0
336	1	1	42.19867807633969	48.4756624949419	73.32170184052403	0	0	0
337	1	1	42.69368244487969	49.233380317436186	73.74694809459434	0	0	0
338	1	1	43.18868681341969	49.98051328757239	73.30336833844922	0	0	0
339	1	1	43.683691181959695	50.73823111006668	73.72861459251953	0	0	0
340	1	1	44.1786955504997	51.485364080202885	73.28503483637441	0	0	0
341	1	1	44.6736999190397	52.24308190269717	73.71028109044472	0	0	0
342	1	1	45.1687042875797	52.99021487283338	73.2667013342996	0	0	0
343	1	1	45.6637086561197	53.74793269532766	73.69194758836991	0	0	0
344	1	1	46.158713024659704	54.49506566546387	73.24836783222479	0	0	0
345	1	1	46.653717393199706	55.252783487958155	73.6736140862951	0	0	0
346	1	1	47.14872176173971	55.99991645809436	73.23003433014998	0	0	0
347	1	1	47.64372613027971	56.75763428058865	73.65528058422029	0	0	0
348	1	1	48.13873049881971	57.50476725072485	73.21170082807517	0	0	0
349	1	1	48.63373486735971	58.26248507321914	73.63694708214548	0	0	0
350	1	1	49.128739235899715	59.009618043355346	73.19336732600036	0	0	0
351	1	1	49.62374360443972	59.76733586584963	73.61861358007067	0	0	0
352	1	1	48.972909258163206	60.38636394233809	74.05818029198801	0	0	0
353	1	1	48.322074911886695	60.702674626274245	74.74837026941066	0	0	0
354	1	1	47.671240565610184	61.45855202212774	74.81953217034484	0	0	0
355	1	1	47.02040621933367	61.77486270606389	75.50972214776749	0	0	0
356	1	1	46.36957187305716	62.53074010191739	75.58088404870168	0	0	0
357	1	1	45.71873752678065	62.84705078585354	76.27107402612432	0	0	0
358	1	1	45.06790318050414	63.602928181707036	76.34223592705851	0	0	0
359	1	1	44.41706883422763	63.91923886564319	77.03242590448116	0	0	0
360	1	1	43.76623448795112	64.67511626149668	77.10358780541534	0	0	0
361	1	1	43.115400141674606	64.99142694543283	77.79377778283799	0	0	0
362	1	1	42.464565795398094	65.74730434128634	77.86493968377218	0	0	0
363	1	1	41.81373144912158	66.06361502522249	78.55512966119483	0	0	0
364	1	1	41.16289710284507	66.81949242107599	78.62629156212901	0	0	0
365	1	1	40.51206275656856	67.13580310501214	79.31648153955166	0	0	0
366	1	1	39.86122841029205	67.89168050086565	79.38764344048585	0	0	0
367	1	1	39.21039406401554	68.2079911848018	80.0778334179085	0	0	0
368	1	1	38.55955971773903	68.9638685806553	80.14899531884268	0	0	0
369	1	1	37.908725371462516	69.28017926459145	80.83918529626533	0	0	0
370	1	1	37.257891025186005	70.03605666044496	80.91034719719951	0	0	0
371	1	1	36.607056678909494	70.35236734438111	81.60053717462216	0	0	0
372	1	1	35.95622233263298	71.10824474023461	81.67169907555635	0	0	0
373	1	1	35.30538798635647	71.42455542417076	82.361889052979	0	0	0
374	1	1	34.65455364007996	72.18043282002427	82.43305095391318	0	0	0
375	1	1	34.00371929380345	72.49674350396042	83.12324093133583	0	0	0
376	1	1	33.35288494752694	73.25262089981392	83.19440283227001	0	0	0
377	1	1	32.70205060125043	73.56893158375007	83.88459280969266	0	0	0
378	1	1	32.051216254973916	74.32480897960357	83.95575471062685	0	0	0
379	1	1	31.40038190869741	74.64111966353973	84.6459446880495	0	0	0
380	1	1	30.7495475624209	75.39699705939323	84.71710658898368	0	0	0
381	1	1	30.098713216144393	75.71330774332938	85.40729656640633	0	0	0
382	1	1	29.447878869867885	76.46918513918288	85.47845846734052	0	0	0
383	1	1	28.797044523591378	76.78549582311904	86.16864844476316	0	0	0
384	1	1	28.14621017731487	77.54137321897254	86.23981034569735	0	0	0
385	1	1	27.495375831038363	77.85768390290869	86.93000032312	0	0	0
386	1	1	26.844541484761855	78.61356129876219	87.00116222405418	0	0	0
387	1	1	26.193707138485347	78.92987198269834	87.69135220147683	0	0	0
388	1	1	25.54287279220884	79.68574937855185	87.76251410241102	0	0	0
389	1	1	24.892038445932332	80.002060062488	88.45270407983367	0	0	0
390	1	1	24.241204099655825	80.7579374583415	88.52386598076785	0	0	0
391	1	1	23.590369753379317	81.07424814227765	89.2140559581905	0	0	0
392	1	1	22.93953540710281	81.83012553813116	89.28521785912469	0	0	0
393	1	1	22.288701060826302	82.14643622206731	89.97540783654733	0	0	0
394	1	1	21.637866714549794	82.90231361792081	90.04656973748152	0	0	0
395	1	1	20.987032368273287	83.21862430185696	90.73675971490417	0	0	0
396	1	1	20.33619802199678	83.97450169771047	90.80792161583835	0	0	0
397	1	1	19.68536367572027	84.29081238164662	91.498111593261	0	0	0
398	1	1	19.034529329443764	85.04668977750012	91.56927349419519	0	0	0
399	1	1	18.383694983167256	85.36300046143627	92.25946347161783	0	0	0
400	1	1	17.73286063689075	86.11887785728977	92.33062537255202	0	0	0
401	1	1	17.08202629061424	86.43518854122593	93.02081534997467	0	0	0
402	1	1	50.13654159651644	60.265340596632846	72.91930713262461	0	0	0
403	1	1	50.64933958859316	61.04627856841897	72.56269234949768	0	0	0
404	1	1	51.16213758066988	61.12791009275904	71.70807283558754	0	0	0
405	1	1	51.6749355727466	61.90884806454516	71.35145805246061	0	0	0
406	1	1	52.18773356482332	61.99047958888523	70.49683853855048	0	0	0
407	1	1	52.70053155690004	62.77141756067135	70.14022375542355	0	0	0
408	1	1	53.21332954897676	62.85304908501142	69.28560424151341	0	0	0
409	1	1	53.72612754105348	63.633987056797544	68.92898945838648	0	0	0
410	1	1	54.2389255331302	63.71561858113761	68.07436994447635	0	0	0
411	1	1	54.75172352520692	64.49655655292374	67.71775516134942	0	0	0
412	1	1	55.26452151728364	64.5781880772638	66.86313564743928	0	0	0
413	1	1	55.77731950936036	65.35912604904992	66.50652086431235	0	0	0
414	1	1	56.29011750143708	65.44075757338999	65.65190135040221	0	0	0
415	1	1	56.8029154935138	66.2216955451761	65.29528656727528	0	0	0
416	1	1	57.31571348559052	66.30332706951617	64.44066705336515	0	0	0
417	1	1	57.82851147766724	67.08426504130229	64.08405227023822	0	0	0
418	1	1	58.34130946974396	67.16589656564236	63.22943275632808	0	0	0
419	1	1	58.85410746182068	67.94683453742847	62.87281797320116	0	0	0
420	1	1	59.3669054538974	68.02846606176854	62.01819845929102	0	0	0
421	1	1	59.87970344597412	68.80940403355466	61.6615836761641	0	0	0
422	1	1	60.39250143805084	68.89103555789472	60.80696416225396	0	0	0
423	1	1	60.90529943012756	69.67197352968084	60.45034937912704	0	0	0
424	1	1	61.41809742220428	69.75360505402091	59.5957298652169	0	0	0
425	1	1	61.930895414281004	70.53454302580703	59.23911508208998	0	0	0
426	1	1	62.443693406357724	70.6161745501471	58.384495568179844	0	0	0
427	1	1	62.956491398434444	71.39711252193321	58.02788078505292	0	0	0
428	1	1	63.469289390511165	71.47874404627328	57.173261271142785	0	0	0
429	1	1	63.982087382587885	72.2596820180594	56.81664648801586	0	0	0
430	1	1	64.4948853746646	72.34131354239946	55.962026974105726	0	0	0
431	1	1	65.00768336674132	73.12225151418558	55.605412190978804	0	0	0
432	1	1	65.52048135881803	73.20388303852565	54.75079267706867	0	0	0
433	1	1	66.03327935089474	73.98482101031176	54.394177893941745	0	0	0
434	1	1	66.54607734297146	74.06645253465183	53.53955838003161	0	0	0
435	1	1	67.05887533504817	74.84739050643795	53.182943596904686	0	0	0
436	1	1	67.57167332712488	74.92902203077801	52.32832408299455	0	0	0
437	1	1	68.0844713192016	75.70996000256413	51.971709299867626	0	0	0
438	1	1	68.59726931127831	75.7915915269042	51.11708978595749	0	0	0
439	1	1	69.11006730335502	76.57252949869032	50.76047500283057	0	0	0
440	1	1	69.62286529543174	76.65416102303038	49.90585548892043	0	0	0
441	1	1	70.13566328750845	77.4350989948165	49.54924070579351	0	0	0
442	1	1	70.64846127958516	77.51673051915657	48.69462119188337	0	0	0
443	1	1	71.16125927166188	78.29766849094268	48.33800640875645	0	0	0
444	1	1	71.67405726373859	78.37930001528275	47.48338689484631	0	0	0
445	1	1	72.1868552558153	79.16023798706887	47.12677211171939	0	0	0
446	1	1	72.69965324789202	79.24186951140894	46.27215259780925	0	0	0
447	1	1	73.21245123996873	80.02280748319505	45.91553781468233	0	0	0