bb72nuc7bl9bn4d30tot200V2

199 atoms
198 bonds
218 angles

1 atom types
1 bond types
1 angle types

-1000 1000 xlo xhi
-1000 1000 ylo yhi
-1000 1000 zlo zhi

Masses

1 1

Atoms

1	1	1	0.0	0.0	0.0	0	0	0
2	1	1	0.0	0.0	1.0	0	0	0
3	1	1	0.0	-0.49999999999999994	1.8660254037844388	0	0	0
4	1	1	0.0	0.0	2.7320508075688776	0	0	0
5	1	1	0.0	-0.49999999999999994	3.5980762113533165	0	0	0
6	1	1	0.0	0.0	4.464101615137755	0	0	0
7	1	1	0.0	-0.49999999999999994	5.330127018922194	0	0	0
8	1	1	0.0	0.0	6.196152422706632	0	0	0
9	1	1	0.0	-0.49999999999999994	7.06217782649107	0	0	0
10	1	1	0.0	0.0	7.928203230275509	0	0	0
11	1	1	-0.8587975229374605	0.5034741450597549	8.022969257167166	0	0	0
12	1	1	-1.7175950458749214	0.8921125313843261	8.356776116400937	0	0	0
13	1	1	-2.5763925688123823	1.3755169446005537	8.187108830574953	0	0	0
14	1	1	-3.4351900917498432	1.764155330925125	8.520915689808724	0	0	0
15	1	1	-4.293987614687304	2.247559744141353	8.35124840398274	0	0	0
16	1	1	-5.152785137624765	2.636198130465924	8.685055263216512	0	0	0
17	1	1	-6.011582660562225	3.1196025436821517	8.515387977390528	0	0	0
18	1	1	-6.870380183499686	3.508240930006723	8.8491948366243	0	0	0
19	1	1	-7.729177706437146	3.9916453432229506	8.679527550798316	0	0	0
20	1	1	0.7659694769115994	0.6427162140985467	7.942577811125098	0	0	0
21	1	1	1.5319389538231991	1.1921374925072519	8.276384670358869	0	0	0
22	1	1	2.2979084307347986	1.7559333517655464	7.967475315494093	0	0	0
23	1	1	3.0638779076463982	2.305354630174252	8.301282174727865	0	0	0
24	1	1	3.829847384557998	2.8691504894325464	7.992372819863089	0	0	0
25	1	1	4.595816861469597	3.4185717678412515	8.32617967909686	0	0	0
26	1	1	5.361786338381196	3.982367627099546	8.017270324232085	0	0	0
27	1	1	6.127755815292796	4.531788905508251	8.351077183465856	0	0	0
28	1	1	6.893725292204395	5.095584764766546	8.04216782860108	0	0	0
29	1	1	0.09282804602586206	-0.6454800703076446	8.686318282696089	0	0	0
30	1	1	0.18565609205172412	-1.5835397350409204	9.02012514192986	0	0	0
31	1	1	0.2784841380775862	-1.7634843473536164	9.999412071471276	0	0	0
32	1	1	0.37131218410344824	-2.701544012086892	10.333218930705048	0	0	0
33	1	1	0.4641402301293103	-2.881488624399588	11.312505860246464	0	0	0
34	1	1	0.5569682761551724	-3.8195482891328636	11.646312719480235	0	0	0
35	1	1	0.6497963221810344	-3.9994929014455596	12.625599649021652	0	0	0
36	1	1	0.7426243682068965	-4.9375525661788355	12.959406508255423	0	0	0
37	1	1	0.8354524142327585	-5.117497178491532	13.93869343779684	0	0	0
38	1	1	1.5616126520549347	-4.542950089444729	14.316300312037614	0	0	0
39	1	1	2.28777288987711	-4.234181151780185	14.93059100229716	0	0	0
40	1	1	3.0139331276992856	-3.5478053398748677	14.970334603509905	0	0	0
41	1	1	3.740093365521461	-3.2390364022103233	15.58462529376945	0	0	0
42	1	1	4.466253603343636	-2.5526605903050057	15.624368894982195	0	0	0
43	1	1	5.192413841165812	-2.2438916526404613	16.23865958524174	0	0	0
44	1	1	5.918574078987987	-1.5575158407351437	16.278403186454486	0	0	0
45	1	1	6.644734316810163	-1.2487469030705993	16.892693876714034	0	0	0
46	1	1	7.370894554632338	-0.5623710911652818	16.93243747792678	0	0	0
47	1	1	1.0649633496975819	-6.080361797165705	14.080878024188973	0	0	0
48	1	1	1.2944742851624051	-6.985319310538821	13.722581178694057	0	0	0
49	1	1	1.5239852206272284	-7.7480922375198045	14.327148951873314	0	0	0
50	1	1	1.7534961560920517	-8.65304975089292	13.968852106378398	0	0	0
51	1	1	1.983007091556875	-9.415822677873905	14.573419879557655	0	0	0
52	1	1	2.212518027021698	-10.320780191247021	14.215123034062739	0	0	0
53	1	1	2.4420289624865212	-11.083553118228005	14.819690807241996	0	0	0
54	1	1	2.6715398979513445	-11.988510631601121	14.46139396174708	0	0	0
55	1	1	2.9010508334161678	-12.751283558582106	15.065961734926336	0	0	0
56	1	1	-0.02725884357613828	-4.909379886480579	14.399580059880645	0	0	0
57	1	1	-0.8899701013850347	-4.959588335674172	14.902778228875095	0	0	0
58	1	1	-1.7526813591939312	-4.548910162783961	15.19785910585859	0	0	0
59	1	1	-2.6153926170028274	-4.599118611977554	15.70105727485304	0	0	0
60	1	1	-3.478103874811724	-4.188440439087342	15.996138151836536	0	0	0
61	1	1	-4.34081513262062	-4.2386488882809354	16.499336320830984	0	0	0
62	1	1	-5.203526390429516	-3.8279707153907236	16.794417197814482	0	0	0
63	1	1	-6.066237648238413	-3.878179164584316	17.29761536680893	0	0	0
64	1	1	-6.92894890604731	-3.4675009916941044	17.592696243792428	0	0	0
65	1	1	-6.740847721147194	-2.6430015765680954	18.126380287676113	0	0	0
66	1	1	-6.552746536247078	-2.195806159605403	19.0008139348368	0	0	0
67	1	1	-6.364645351346962	-1.214926698759026	19.050748166871475	0	0	0
68	1	1	-6.1765441664468455	-0.7677312817963332	19.92518181403216	0	0	0
69	1	1	-5.988442981546729	0.2131481790500438	19.975116046066837	0	0	0
70	1	1	-5.800341796646613	0.6603435960127365	20.849549693227523	0	0	0
71	1	1	-5.612240611746497	1.6412230568591135	20.8994839252622	0	0	0
72	1	1	-5.424139426846381	2.088418473821806	21.773917572422885	0	0	0
73	1	1	-5.2360382419462645	3.069297934668183	21.82385180445756	0	0	0
74	1	1	-7.434077963771749	-4.120919994805922	18.156512030565715	0	0	0
75	1	1	-7.939207021496188	-4.968705344202902	18.318081323410183	0	0	0
76	1	1	-8.444336079220626	-5.252674906826595	19.13306961936647	0	0	0
77	1	1	-8.949465136945065	-6.100460256223575	19.29463891221094	0	0	0
78	1	1	-9.454594194669504	-6.384429818847268	20.109627208167225	0	0	0
79	1	1	-9.959723252393943	-7.232215168244248	20.271196501011694	0	0	0
80	1	1	-10.464852310118381	-7.516184730867941	21.08618479696798	0	0	0
81	1	1	-10.96998136784282	-8.36397008026492	21.24775408981245	0	0	0
82	1	1	-11.475110425567259	-8.647939642888613	22.062742385768736	0	0	0
83	1	1	-7.475857839407398	-3.227319830563258	16.790696475432878	0	0	0
84	1	1	-8.022766772767486	-2.618316959333728	16.216234882769697	0	0	0
85	1	1	-8.569675706127574	-2.8113138564637463	15.40159212897567	0	0	0
86	1	1	-9.116584639487662	-2.2023109852342158	14.827130536312488	0	0	0
87	1	1	-9.66349357284775	-2.395307882364234	14.01248778251846	0	0	0
88	1	1	-10.210402506207839	-1.7863050111347036	13.438026189855279	0	0	0
89	1	1	-10.757311439567927	-1.9793019082647219	12.623383436061252	0	0	0
90	1	1	-11.304220372928015	-1.3702990370351915	12.04892184339807	0	0	0
91	1	1	-11.851129306288103	-1.5632959341652097	11.234279089604042	0	0	0
92	1	1	-11.73185855532625	-0.8256623376026286	10.569695637216649	0	0	0
93	1	1	-11.612587804364397	0.14543882189914525	10.362966282795691	0	0	0
94	1	1	-11.493317053402544	0.4519565290135256	9.418603331812152	0	0	0
95	1	1	-11.374046302440691	1.4230576885152995	9.211873977391194	0	0	0
96	1	1	-11.254775551478838	1.7295753956296798	8.267511026407655	0	0	0
97	1	1	-11.135504800516985	2.7006765551314538	8.060781671986698	0	0	0
98	1	1	-11.016234049555132	3.007194262245834	7.116418721003159	0	0	0
99	1	1	-10.89696329859328	3.978295421747608	6.9096893665822	0	0	0
100	1	1	-10.777692547631426	4.284813128861988	5.9653264155986605	0	0	0
101	1	1	-12.816087709293111	-1.6298312598653901	11.488106453975963	0	0	0
102	1	1	-13.78104611229812	-1.8143662243567786	11.674659736847605	0	0	0
103	1	1	-14.746004515303127	-1.7450738244762458	11.927748345419428	0	0	0
104	1	1	-15.710962918308136	-1.9296087889676343	12.11430162829107	0	0	0
105	1	1	-16.675921321313144	-1.8603163890871015	12.367390236862892	0	0	0
106	1	1	-17.64087972431815	-2.04485135357849	12.553943519734535	0	0	0
107	1	1	-18.605838127323157	-1.9755589536979572	12.807032128306357	0	0	0
108	1	1	-19.570796530328163	-2.1600939181893457	12.993585411178	0	0	0
109	1	1	-20.53575493333317	-2.090801518308813	13.246674019749822	0	0	0
110	1	1	-11.553127514240416	-2.4276652692461145	10.829235160494912	0	0	0
111	1	1	-11.255125722192728	-2.9737091071238764	10.04627216069729	0	0	0
112	1	1	-10.957123930145041	-3.9247968741107684	10.127678495980572	0	0	0
113	1	1	-10.659122138097354	-4.47084071198853	9.34471549618295	0	0	0
114	1	1	-10.361120346049667	-5.421928478975422	9.426121831466231	0	0	0
115	1	1	-10.06311855400198	-5.967972316853184	8.64315883166861	0	0	0
116	1	1	-9.765116761954292	-6.919060083840076	8.72456516695189	0	0	0
117	1	1	-9.467114969906605	-7.465103921717838	7.941602167154269	0	0	0
118	1	1	-9.169113177858918	-8.41619168870473	8.02300850243755	0	0	0
119	1	1	-9.965653978405623	-9.019753096176059	7.987846300065668	0	0	0
120	1	1	-10.762194778952328	-9.52487150660418	7.655614235822943	0	0	0
121	1	1	-11.558735579499032	-10.065152119404184	7.926943579051549	0	0	0
122	1	1	-12.355276380045737	-10.570270529832305	7.594711514808824	0	0	0
123	1	1	-13.151817180592442	-11.110551142632309	7.8660408580374295	0	0	0
124	1	1	-13.948357981139146	-11.61566955306043	7.533808793794705	0	0	0
125	1	1	-14.744898781685851	-12.155950165860434	7.80513813702331	0	0	0
126	1	1	-15.541439582232556	-12.661068576288555	7.472906072780586	0	0	0
127	1	1	-16.33798038277926	-13.201349189088559	7.744235416009191	0	0	0
128	1	1	-8.693143182372589	-8.543548885397003	8.893199692836205	0	0	0
129	1	1	-8.21717318688626	-9.088939048286612	9.583128771524725	0	0	0
130	1	1	-7.741203191399931	-8.764138020777564	10.400415046905518	0	0	0
131	1	1	-7.265233195913602	-9.309528183667172	11.090344125594038	0	0	0
132	1	1	-6.789263200427273	-8.984727156158124	11.907630400974831	0	0	0
133	1	1	-6.313293204940944	-9.530117319047733	12.597559479663351	0	0	0
134	1	1	-5.837323209454615	-9.205316291538685	13.414845755044144	0	0	0
135	1	1	-5.361353213968286	-9.750706454428293	14.104774833732664	0	0	0
136	1	1	-4.885383218481957	-9.425905426919245	14.922061109113457	0	0	0
137	1	1	-8.55011724605012	-8.637711945601792	7.269501493718708	0	0	0
138	1	1	-7.931121314241321	-8.452800611168081	6.506185153790037	0	0	0
139	1	1	-7.312125382432523	-9.021396285453214	5.964389070758428	0	0	0
140	1	1	-6.693129450623725	-8.836484951019504	5.2010727308297575	0	0	0
141	1	1	-6.074133518814927	-9.405080625304635	4.659276647798149	0	0	0
142	1	1	-5.455137587006129	-9.220169290870924	3.895960307869478	0	0	0
143	1	1	-4.836141655197331	-9.788764965156055	3.354164224837869	0	0	0
144	1	1	-4.2171457233885326	-9.603853630722345	2.5908478849091985	0	0	0
145	1	1	-3.5981497915797345	-10.172449305007476	2.0490518018775896	0	0	0
146	1	1	-3.987680689030357	-11.087981990992217	1.9487244336031435	0	0	0
147	1	1	-4.377211586480979	-11.830692870912783	1.4040720409902652	0	0	0
148	1	1	-4.766742483931602	-12.673731119107794	1.7749523343621287	0	0	0
149	1	1	-5.156273381382225	-13.41644199902836	1.2302999417492506	0	0	0
150	1	1	-5.545804278832848	-14.25948024722337	1.6011802351211142	0	0	0
151	1	1	-5.935335176283471	-15.002191127143936	1.056527842508236	0	0	0
152	1	1	-6.324866073734094	-15.845229375338947	1.4274081358800996	0	0	0
153	1	1	-6.7143969711847165	-16.58794025525951	0.8827557432672214	0	0	0
154	1	1	-7.103927868635339	-17.430978503454522	1.253636036639085	0	0	0
155	1	1	-2.713273409869099	-10.235938247267848	2.510530884070219	0	0	0
156	1	1	-1.8283970281584634	-10.52166082522105	2.8784390214339766	0	0	0
157	1	1	-0.9435206464478275	-10.34590432098162	3.3098361010581074	0	0	0
158	1	1	-0.05864426473719164	-10.631626898934822	3.677744238421865	0	0	0
159	1	1	0.8262321169734442	-10.455870394695394	4.109141318045996	0	0	0
160	1	1	1.71110849868408	-10.741592972648595	4.4770494554097535	0	0	0
161	1	1	2.595984880394716	-10.565836468409167	4.908446535033884	0	0	0
162	1	1	3.4808612621053516	-10.851559046362368	5.276354672397642	0	0	0
163	1	1	4.365737643815987	-10.67580254212294	5.707751752021773	0	0	0
164	1	1	-3.4736200122130176	-9.762831085383445	1.145334341493586	0	0	0
165	1	1	-3.3490902328463004	-8.956232571144078	0.5675011727694969	0	0	0
166	1	1	-3.224560453479583	-9.053351517288714	-0.4199502155786242	0	0	0
167	1	1	-3.100030674112866	-8.246753003049347	-0.9977833843027133	0	0	0
168	1	1	-2.9755008947461485	-8.343871949193984	-1.9852347726508344	0	0	0
169	1	1	-2.8509711153794313	-7.537273434954616	-2.5630679413749236	0	0	0
170	1	1	-2.726441336012714	-7.6343923810992536	-3.550519329723045	0	0	0
171	1	1	-2.6019115566459967	-6.827793866859886	-4.128352498447134	0	0	0
172	1	1	-2.4773817772792794	-6.924912813004523	-5.115803886795255	0	0	0
173	1	1	-2.6282053554664273	-6.0416418086845125	-5.559745978954068	0	0	0
174	1	1	-2.779028933653575	-5.054735634437781	-5.502575606412808	0	0	0
175	1	1	-2.929852511840723	-4.511771552349864	-6.328676238191559	0	0	0
176	1	1	-3.080676090027871	-3.524865378103133	-6.271505865650298	0	0	0
177	1	1	-3.2314996682150188	-2.9819012960152156	-7.097606497429049	0	0	0
178	1	1	-3.3823232464021666	-1.9949951217684845	-7.040436124887789	0	0	0
179	1	1	-3.5331468245893145	-1.4520310396805671	-7.866536756666539	0	0	0
180	1	1	-3.6839704027764624	-0.46512486543383613	-7.809366384125279	0	0	0
181	1	1	-3.8347939809636102	0.07783921665408111	-8.63546701590403	0	0	0
182	1	1	-3.132291748911494	-7.592032116068768	-5.470831723078225	0	0	0
183	1	1	-3.7872017205437087	-7.992260461735888	-6.111854499882023	0	0	0
184	1	1	-4.442111692175923	-8.747516643685978	-6.085757973621576	0	0	0
185	1	1	-5.097021663808138	-9.147744989353098	-6.726780750425374	0	0	0
186	1	1	-5.751931635440353	-9.90300117130319	-6.700684224164927	0	0	0
187	1	1	-6.406841607072567	-10.30322951697031	-7.341707000968725	0	0	0
188	1	1	-7.061751578704782	-11.058485698920402	-7.315610474708278	0	0	0
189	1	1	-7.716661550336997	-11.458714044587522	-7.956633251512076	0	0	0
190	1	1	-8.371571521969212	-12.213970226537613	-7.9305367252516294	0	0	0
191	1	1	-1.5469415438654828	-7.238321425414195	-5.3056880981250085	0	0	0
192	1	1	-0.6165013104516855	-7.414799139860925	-5.626836955118984	0	0	0
193	1	1	0.3139389229621117	-7.781161065637408	-5.634577199703288	0	0	0
194	1	1	1.244379156375909	-7.957638780084139	-5.955726056697263	0	0	0
195	1	1	2.174819389789706	-8.324000705860623	-5.963466301281567	0	0	0
196	1	1	3.1052596232035032	-8.500478420307353	-6.2846151582755425	0	0	0
197	1	1	4.035699856617301	-8.866840346083837	-6.2923554028598465	0	0	0
198	1	1	4.966140090031098	-9.043318060530567	-6.613504259853822	0	0	0
199	1	1	5.896580323444896	-9.40967998630705	-6.621244504438126	0	0	0

Bonds

1	1	1	2
2	1	2	3
3	1	3	4
4	1	4	5
5	1	5	6
6	1	6	7
7	1	7	8
8	1	8	9
9	1	9	10
10	1	10	11
11	1	10	20
12	1	10	29
13	1	11	12
14	1	12	13
15	1	13	14
16	1	14	15
17	1	15	16
18	1	16	17
19	1	17	18
20	1	18	19
21	1	20	21
22	1	21	22
23	1	22	23
24	1	23	24
25	1	24	25
26	1	25	26
27	1	26	27
28	1	27	28
29	1	29	30
30	1	30	31
31	1	31	32
32	1	32	33
33	1	33	34
34	1	34	35
35	1	35	36
36	1	36	37
37	1	37	38
38	1	37	47
39	1	37	56
40	1	38	39
41	1	39	40
42	1	40	41
43	1	41	42
44	1	42	43
45	1	43	44
46	1	44	45
47	1	45	46
48	1	47	48
49	1	48	49
50	1	49	50
51	1	50	51
52	1	51	52
53	1	52	53
54	1	53	54
55	1	54	55
56	1	56	57
57	1	57	58
58	1	58	59
59	1	59	60
60	1	60	61
61	1	61	62
62	1	62	63
63	1	63	64
64	1	64	65
65	1	64	74
66	1	64	83
67	1	65	66
68	1	66	67
69	1	67	68
70	1	68	69
71	1	69	70
72	1	70	71
73	1	71	72
74	1	72	73
75	1	74	75
76	1	75	76
77	1	76	77
78	1	77	78
79	1	78	79
80	1	79	80
81	1	80	81
82	1	81	82
83	1	83	84
84	1	84	85
85	1	85	86
86	1	86	87
87	1	87	88
88	1	88	89
89	1	89	90
90	1	90	91
91	1	91	92
92	1	91	101
93	1	91	110
94	1	92	93
95	1	93	94
96	1	94	95
97	1	95	96
98	1	96	97
99	1	97	98
100	1	98	99
101	1	99	100
102	1	101	102
103	1	102	103
104	1	103	104
105	1	104	105
106	1	105	106
107	1	106	107
108	1	107	108
109	1	108	109
110	1	110	111
111	1	111	112
112	1	112	113
113	1	113	114
114	1	114	115
115	1	115	116
116	1	116	117
117	1	117	118
118	1	118	119
119	1	118	128
120	1	118	137
121	1	119	120
122	1	120	121
123	1	121	122
124	1	122	123
125	1	123	124
126	1	124	125
127	1	125	126
128	1	126	127
129	1	128	129
130	1	129	130
131	1	130	131
132	1	131	132
133	1	132	133
134	1	133	134
135	1	134	135
136	1	135	136
137	1	137	138
138	1	138	139
139	1	139	140
140	1	140	141
141	1	141	142
142	1	142	143
143	1	143	144
144	1	144	145
145	1	145	146
146	1	145	155
147	1	145	164
148	1	146	147
149	1	147	148
150	1	148	149
151	1	149	150
152	1	150	151
153	1	151	152
154	1	152	153
155	1	153	154
156	1	155	156
157	1	156	157
158	1	157	158
159	1	158	159
160	1	159	160
161	1	160	161
162	1	161	162
163	1	162	163
164	1	164	165
165	1	165	166
166	1	166	167
167	1	167	168
168	1	168	169
169	1	169	170
170	1	170	171
171	1	171	172
172	1	172	173
173	1	172	182
174	1	172	191
175	1	173	174
176	1	174	175
177	1	175	176
178	1	176	177
179	1	177	178
180	1	178	179
181	1	179	180
182	1	180	181
183	1	182	183
184	1	183	184
185	1	184	185
186	1	185	186
187	1	186	187
188	1	187	188
189	1	188	189
190	1	189	190
191	1	191	192
192	1	192	193
193	1	193	194
194	1	194	195
195	1	195	196
196	1	196	197
197	1	197	198
198	1	198	199

Angles

1	1	1	2	3
2	1	2	3	4
3	1	3	4	5
4	1	4	5	6
5	1	5	6	7
6	1	6	7	8
7	1	7	8	9
8	1	8	9	10
9	1	9	10	11
10	1	9	10	20
11	1	9	10	29
12	1	10	11	12
13	1	10	20	21
14	1	10	29	30
15	1	11	10	20
16	1	11	10	29
17	1	11	12	13
18	1	12	13	14
19	1	13	14	15
20	1	14	15	16
21	1	15	16	17
22	1	16	17	18
23	1	17	18	19
24	1	20	10	29
25	1	20	21	22
26	1	21	22	23
27	1	22	23	24
28	1	23	24	25
29	1	24	25	26
30	1	25	26	27
31	1	26	27	28
32	1	29	30	31
33	1	30	31	32
34	1	31	32	33
35	1	32	33	34
36	1	33	34	35
37	1	34	35	36
38	1	35	36	37
39	1	36	37	38
40	1	36	37	47
41	1	36	37	56
42	1	37	38	39
43	1	37	47	48
44	1	37	56	57
45	1	38	37	47
46	1	38	37	56
47	1	38	39	40
48	1	39	40	41
49	1	40	41	42
50	1	41	42	43
51	1	42	43	44
52	1	43	44	45
53	1	44	45	46
54	1	47	37	56
55	1	47	48	49
56	1	48	49	50
57	1	49	50	51
58	1	50	51	52
59	1	51	52	53
60	1	52	53	54
61	1	53	54	55
62	1	56	57	58
63	1	57	58	59
64	1	58	59	60
65	1	59	60	61
66	1	60	61	62
67	1	61	62	63
68	1	62	63	64
69	1	63	64	65
70	1	63	64	74
71	1	63	64	83
72	1	64	65	66
73	1	64	74	75
74	1	64	83	84
75	1	65	64	74
76	1	65	64	83
77	1	65	66	67
78	1	66	67	68
79	1	67	68	69
80	1	68	69	70
81	1	69	70	71
82	1	70	71	72
83	1	71	72	73
84	1	74	64	83
85	1	74	75	76
86	1	75	76	77
87	1	76	77	78
88	1	77	78	79
89	1	78	79	80
90	1	79	80	81
91	1	80	81	82
92	1	83	84	85
93	1	84	85	86
94	1	85	86	87
95	1	86	87	88
96	1	87	88	89
97	1	88	89	90
98	1	89	90	91
99	1	90	91	92
100	1	90	91	101
101	1	90	91	110
102	1	91	92	93
103	1	91	101	102
104	1	91	110	111
105	1	92	91	101
106	1	92	91	110
107	1	92	93	94
108	1	93	94	95
109	1	94	95	96
110	1	95	96	97
111	1	96	97	98
112	1	97	98	99
113	1	98	99	100
114	1	101	91	110
115	1	101	102	103
116	1	102	103	104
117	1	103	104	105
118	1	104	105	106
119	1	105	106	107
120	1	106	107	108
121	1	107	108	109
122	1	110	111	112
123	1	111	112	113
124	1	112	113	114
125	1	113	114	115
126	1	114	115	116
127	1	115	116	117
128	1	116	117	118
129	1	117	118	119
130	1	117	118	128
131	1	117	118	137
132	1	118	119	120
133	1	118	128	129
134	1	118	137	138
135	1	119	118	128
136	1	119	118	137
137	1	119	120	121
138	1	120	121	122
139	1	121	122	123
140	1	122	123	124
141	1	123	124	125
142	1	124	125	126
143	1	125	126	127
144	1	128	118	137
145	1	128	129	130
146	1	129	130	131
147	1	130	131	132
148	1	131	132	133
149	1	132	133	134
150	1	133	134	135
151	1	134	135	136
152	1	137	138	139
153	1	138	139	140
154	1	139	140	141
155	1	140	141	142
156	1	141	142	143
157	1	142	143	144
158	1	143	144	145
159	1	144	145	146
160	1	144	145	155
161	1	144	145	164
162	1	145	146	147
163	1	145	155	156
164	1	145	164	165
165	1	146	145	155
166	1	146	145	164
167	1	146	147	148
168	1	147	148	149
169	1	148	149	150
170	1	149	150	151
171	1	150	151	152
172	1	151	152	153
173	1	152	153	154
174	1	155	145	164
175	1	155	156	157
176	1	156	157	158
177	1	157	158	159
178	1	158	159	160
179	1	159	160	161
180	1	160	161	162
181	1	161	162	163
182	1	164	165	166
183	1	165	166	167
184	1	166	167	168
185	1	167	168	169
186	1	168	169	170
187	1	169	170	171
188	1	170	171	172
189	1	171	172	173
190	1	171	172	182
191	1	171	172	191
192	1	172	173	174
193	1	172	182	183
194	1	172	191	192
195	1	173	172	182
196	1	173	172	191
197	1	173	174	175
198	1	174	175	176
199	1	175	176	177
200	1	176	177	178
201	1	177	178	179
202	1	178	179	180
203	1	179	180	181
204	1	182	172	191
205	1	182	183	184
206	1	183	184	185
207	1	184	185	186
208	1	185	186	187
209	1	186	187	188
210	1	187	188	189
211	1	188	189	190
212	1	191	192	193
213	1	192	193	194
214	1	193	194	195
215	1	194	195	196
216	1	195	196	197
217	1	196	197	198
218	1	197	198	199
