ITEM: TIMESTEP
0
ITEM: NUMBER OF ATOMS
501
ITEM: BOX BOUNDS pp pp pp
-1.0000000000000000e+03 1.0000000000000000e+03
-1.0000000000000000e+03 1.0000000000000000e+03
-1.0000000000000000e+03 1.0000000000000000e+03
ITEM: ATOMS id x y z ix iy iz
1 0.00000 0.00000 0.00000 0 0 0
2 0.00000 0.00000 1.00000 0 0 0
3 0.00000 -0.50000 1.86603 0 0 0
4 0.00000 0.00000 2.73205 0 0 0
5 0.00000 -0.50000 3.59808 0 0 0
6 0.00000 0.00000 4.46410 0 0 0
7 0.00000 -0.50000 5.33013 0 0 0
8 0.00000 0.00000 6.19615 0 0 0
9 0.00000 -0.50000 7.06218 0 0 0
10 0.00000 0.00000 7.92820 0 0 0
11 0.00000 -0.50000 8.79423 0 0 0
12 0.00000 0.00000 9.66025 0 0 0
13 0.00000 -0.50000 10.52628 0 0 0
14 0.00000 0.00000 11.39230 0 0 0
15 0.00000 -0.50000 12.25833 0 0 0
16 0.00000 0.00000 13.12436 0 0 0
17 0.00000 -0.50000 13.99038 0 0 0
18 0.00000 0.00000 14.85641 0 0 0
19 0.00000 -0.50000 15.72243 0 0 0
20 0.00000 0.00000 16.58846 0 0 0
21 0.00000 -0.50000 17.45448 0 0 0
22 0.00000 0.00000 18.32051 0 0 0
23 0.00000 -0.50000 19.18653 0 0 0
24 0.00000 0.00000 20.05256 0 0 0
25 0.00000 -0.50000 20.91858 0 0 0
26 0.00000 0.00000 21.78461 0 0 0
27 0.00000 -0.50000 22.65064 0 0 0
28 0.00000 0.00000 23.51666 0 0 0
29 0.00000 -0.50000 24.38269 0 0 0
30 0.00000 0.00000 25.24871 0 0 0
31 0.00000 -0.50000 26.11474 0 0 0
32 0.00000 0.00000 26.98076 0 0 0
33 0.00000 -0.50000 27.84679 0 0 0
34 0.00000 0.00000 28.71281 0 0 0
35 0.00000 -0.50000 29.57884 0 0 0
36 0.00000 0.00000 30.44486 0 0 0
37 0.00000 -0.50000 31.31089 0 0 0
38 0.00000 0.00000 32.17691 0 0 0
39 0.00000 -0.50000 33.04294 0 0 0
40 0.00000 0.00000 33.90897 0 0 0
41 0.00000 -0.50000 34.77499 0 0 0
42 0.00000 0.00000 35.64102 0 0 0
43 0.00000 -0.50000 36.50704 0 0 0
44 0.00000 0.00000 37.37307 0 0 0
45 0.00000 -0.50000 38.23909 0 0 0
46 0.00000 0.00000 39.10512 0 0 0
47 0.00000 -0.50000 39.97114 0 0 0
48 0.00000 0.00000 40.83717 0 0 0
49 0.00000 -0.50000 41.70319 0 0 0
50 0.00000 0.00000 42.56922 0 0 0
51 0.00000 -0.50000 43.43524 0 0 0
52 0.00000 0.00000 44.30127 0 0 0
53 0.00000 -0.50000 45.16730 0 0 0
54 0.00000 0.00000 46.03332 0 0 0
55 0.00000 -0.50000 46.89935 0 0 0
56 0.00000 0.00000 47.76537 0 0 0
57 0.00000 -0.50000 48.63140 0 0 0
58 0.00000 0.00000 49.49742 0 0 0
59 0.00000 -0.50000 50.36345 0 0 0
60 0.00000 0.00000 51.22947 0 0 0
61 0.00000 -0.50000 52.09550 0 0 0
62 0.00000 0.00000 52.96152 0 0 0
63 0.00000 -0.50000 53.82755 0 0 0
64 0.00000 0.00000 54.69358 0 0 0
65 0.00000 -0.50000 55.55960 0 0 0
66 0.00000 0.00000 56.42563 0 0 0
67 0.00000 -0.50000 57.29165 0 0 0
68 0.00000 0.00000 58.15768 0 0 0
69 0.00000 -0.50000 59.02370 0 0 0
70 0.00000 0.00000 59.88973 0 0 0
71 0.00000 -0.50000 60.75575 0 0 0
72 0.00000 0.00000 61.62178 0 0 0
73 0.00000 -0.50000 62.48780 0 0 0
74 0.00000 0.00000 63.35383 0 0 0
75 0.00000 -0.50000 64.21985 0 0 0
76 0.00000 0.00000 65.08588 0 0 0
77 0.00000 -0.50000 65.95191 0 0 0
78 0.00000 0.00000 66.81793 0 0 0
79 0.00000 -0.50000 67.68396 0 0 0
80 0.00000 0.00000 68.54998 0 0 0
81 0.00000 -0.50000 69.41601 0 0 0
82 0.00000 0.00000 70.28203 0 0 0
83 0.00000 -0.50000 71.14806 0 0 0
84 0.00000 0.00000 72.01408 0 0 0
85 0.00000 -0.50000 72.88011 0 0 0
86 0.00000 0.00000 73.74613 0 0 0
87 0.00000 -0.50000 74.61216 0 0 0
88 0.00000 0.00000 75.47818 0 0 0
89 0.00000 -0.50000 76.34421 0 0 0
90 0.00000 0.00000 77.21024 0 0 0
91 0.00000 -0.50000 78.07626 0 0 0
92 0.00000 0.00000 78.94229 0 0 0
93 0.00000 -0.50000 79.80831 0 0 0
94 0.00000 0.00000 80.67434 0 0 0
95 0.00000 -0.50000 81.54036 0 0 0
96 0.00000 0.00000 82.40639 0 0 0
97 0.00000 -0.50000 83.27241 0 0 0
98 0.00000 0.00000 84.13844 0 0 0
99 0.00000 -0.50000 85.00446 0 0 0
100 0.00000 0.00000 85.87049 0 0 0
101 0.00000 -0.50000 86.73651 0 0 0
102 -0.11147 -1.49376 86.74012 0 0 0
103 -0.22295 -2.35618 86.24636 0 0 0
104 -0.33442 -3.21501 86.74636 0 0 0
105 -0.44589 -4.07743 86.25260 0 0 0
106 -0.55737 -4.93625 86.75260 0 0 0
107 -0.66884 -5.79867 86.25883 0 0 0
108 -0.78032 -6.65749 86.75883 0 0 0
109 -0.89179 -7.51992 86.26507 0 0 0
110 -1.00326 -8.37874 86.76507 0 0 0
111 -1.11474 -9.24116 86.27131 0 0 0
112 -1.22621 -10.09998 86.77131 0 0 0
113 -1.33768 -10.96241 86.27755 0 0 0
114 -1.44916 -11.82123 86.77755 0 0 0
115 -1.56063 -12.68365 86.28379 0 0 0
116 -1.67210 -13.54247 86.78379 0 0 0
117 -1.78358 -14.40489 86.29003 0 0 0
118 -1.89505 -15.26372 86.79003 0 0 0
119 -2.00652 -16.12614 86.29627 0 0 0
120 -2.11800 -16.98496 86.79627 0 0 0
121 -2.22947 -17.84738 86.30251 0 0 0
122 -2.34095 -18.70620 86.80251 0 0 0
123 -2.45242 -19.56863 86.30875 0 0 0
124 -2.56389 -20.42745 86.80875 0 0 0
125 -2.67537 -21.28987 86.31499 0 0 0
126 -2.78684 -22.14869 86.81499 0 0 0
127 -2.89831 -23.01112 86.32123 0 0 0
128 -3.00979 -23.86994 86.82123 0 0 0
129 -3.12126 -24.73236 86.32746 0 0 0
130 -3.23273 -25.59118 86.82746 0 0 0
131 -3.34421 -26.45360 86.33370 0 0 0
132 -3.45568 -27.31243 86.83370 0 0 0
133 -3.56716 -28.17485 86.33994 0 0 0
134 -3.67863 -29.03367 86.83994 0 0 0
135 -3.79010 -29.89609 86.34618 0 0 0
136 -3.90158 -30.75491 86.84618 0 0 0
137 -4.01305 -31.61734 86.35242 0 0 0
138 -4.12452 -32.47616 86.85242 0 0 0
139 -4.23600 -33.33858 86.35866 0 0 0
140 -4.34747 -34.19740 86.85866 0 0 0
141 -4.45894 -35.05983 86.36490 0 0 0
142 -4.57042 -35.91865 86.86490 0 0 0
143 -4.68189 -36.78107 86.37114 0 0 0
144 -4.79336 -37.63989 86.87114 0 0 0
145 -4.90484 -38.50231 86.37738 0 0 0
146 -5.01631 -39.36114 86.87738 0 0 0
147 -5.12779 -40.22356 86.38362 0 0 0
148 -5.23926 -41.08238 86.88362 0 0 0
149 -5.35073 -41.94480 86.38986 0 0 0
150 -5.46221 -42.80362 86.88986 0 0 0
151 -5.57368 -43.66605 86.39610 0 0 0
152 -5.68515 -44.52487 86.89610 0 0 0
153 -5.79663 -45.38729 86.40233 0 0 0
154 -5.90810 -46.24611 86.90233 0 0 0
155 -6.01957 -47.10854 86.40857 0 0 0
156 -6.13105 -47.96736 86.90857 0 0 0
157 -6.24252 -48.82978 86.41481 0 0 0
158 -6.35399 -49.68860 86.91481 0 0 0
159 -6.46547 -50.55102 86.42105 0 0 0
160 -6.57694 -51.40985 86.92105 0 0 0
161 -6.68842 -52.27227 86.42729 0 0 0
162 -6.79989 -53.13109 86.92729 0 0 0
163 -6.91136 -53.99351 86.43353 0 0 0
164 -7.02284 -54.85233 86.93353 0 0 0
165 -7.13431 -55.71476 86.43977 0 0 0
166 -7.24578 -56.57358 86.93977 0 0 0
167 -7.35726 -57.43600 86.44601 0 0 0
168 -7.46873 -58.29482 86.94601 0 0 0
169 -7.58020 -59.15725 86.45225 0 0 0
170 -7.69168 -60.01607 86.95225 0 0 0
171 -7.80315 -60.87849 86.45849 0 0 0
172 -7.91463 -61.73731 86.95849 0 0 0
173 -8.02610 -62.59974 86.46473 0 0 0
174 -8.13757 -63.45856 86.96473 0 0 0
175 -8.24905 -64.32098 86.47097 0 0 0
176 -8.36052 -65.17980 86.97097 0 0 0
177 -8.47199 -66.04222 86.47720 0 0 0
178 -8.58347 -66.90104 86.97720 0 0 0
179 -8.69494 -67.76347 86.48344 0 0 0
180 -8.80641 -68.62229 86.98344 0 0 0
181 -8.91789 -69.48471 86.48968 0 0 0
182 -9.02936 -70.34353 86.98968 0 0 0
183 -9.14083 -71.20596 86.49592 0 0 0
184 -9.25231 -72.06478 86.99592 0 0 0
185 -9.36378 -72.92720 86.50216 0 0 0
186 -9.47526 -73.78602 87.00216 0 0 0
187 -9.58673 -74.64845 86.50840 0 0 0
188 -9.69820 -75.50727 87.00840 0 0 0
189 -9.80968 -76.36969 86.51464 0 0 0
190 -9.92115 -77.22851 87.01464 0 0 0
191 -10.03262 -78.09093 86.52088 0 0 0
192 -10.14410 -78.94975 87.02088 0 0 0
193 -10.25557 -79.81218 86.52712 0 0 0
194 -10.36704 -80.67100 87.02712 0 0 0
195 -10.47852 -81.53342 86.53336 0 0 0
196 -10.58999 -82.39224 87.03336 0 0 0
197 -10.70147 -83.25467 86.53960 0 0 0
198 -10.81294 -84.11349 87.03960 0 0 0
199 -10.92441 -84.97591 86.54583 0 0 0
200 -11.03589 -85.83473 87.04583 0 0 0
201 -11.14736 -86.69716 86.55207 0 0 0
202 0.11147 -0.00624 87.59894 0 0 0
203 0.22295 -0.00984 88.59270 0 0 0
204 0.33442 0.84898 89.09270 0 0 0
205 0.44589 0.84538 90.08646 0 0 0
206 0.55737 1.70420 90.58646 0 0 0
207 0.66884 1.70060 91.58022 0 0 0
208 0.78032 2.55942 92.08022 0 0 0
209 0.89179 2.55582 93.07398 0 0 0
210 1.00326 3.41464 93.57398 0 0 0
211 1.11474 3.41103 94.56774 0 0 0
212 1.22621 4.26986 95.06774 0 0 0
213 1.33768 4.26625 96.06150 0 0 0
214 1.44916 5.12507 96.56150 0 0 0
215 1.56063 5.12147 97.55526 0 0 0
216 1.67210 5.98029 98.05526 0 0 0
217 1.78358 5.97669 99.04903 0 0 0
218 1.89505 6.83551 99.54903 0 0 0
219 2.00652 6.83191 100.54279 0 0 0
220 2.11800 7.69073 101.04279 0 0 0
221 2.22947 7.68713 102.03655 0 0 0
222 2.34095 8.54595 102.53655 0 0 0
223 2.45242 8.54235 103.53031 0 0 0
224 2.56389 9.40117 104.03031 0 0 0
225 2.67537 9.39757 105.02407 0 0 0
226 2.78684 10.25639 105.52407 0 0 0
227 2.89831 10.25279 106.51783 0 0 0
228 3.00979 11.11161 107.01783 0 0 0
229 3.12126 11.10800 108.01159 0 0 0
230 3.23273 11.96683 108.51159 0 0 0
231 3.34421 11.96322 109.50535 0 0 0
232 3.45568 12.82204 110.00535 0 0 0
233 3.56716 12.81844 110.99911 0 0 0
234 3.67863 13.67726 111.49911 0 0 0
235 3.79010 13.67366 112.49287 0 0 0
236 3.90158 14.53248 112.99287 0 0 0
237 4.01305 14.52888 113.98663 0 0 0
238 4.12452 15.38770 114.48663 0 0 0
239 4.23600 15.38410 115.48039 0 0 0
240 4.34747 16.24292 115.98039 0 0 0
241 4.45894 16.23932 116.97416 0 0 0
242 4.57042 17.09814 117.47416 0 0 0
243 4.68189 17.09454 118.46792 0 0 0
244 4.79336 17.95336 118.96792 0 0 0
245 4.90484 17.94976 119.96168 0 0 0
246 5.01631 18.80858 120.46168 0 0 0
247 5.12779 18.80497 121.45544 0 0 0
248 5.23926 19.66380 121.95544 0 0 0
249 5.35073 19.66019 122.94920 0 0 0
250 5.46221 20.51901 123.44920 0 0 0
251 5.57368 20.51541 124.44296 0 0 0
252 5.68515 21.37423 124.94296 0 0 0
253 5.79663 21.37063 125.93672 0 0 0
254 5.90810 22.22945 126.43672 0 0 0
255 6.01957 22.22585 127.43048 0 0 0
256 6.13105 23.08467 127.93048 0 0 0
257 6.24252 23.08107 128.92424 0 0 0
258 6.35399 23.93989 129.42424 0 0 0
259 6.46547 23.93629 130.41800 0 0 0
260 6.57694 24.79511 130.91800 0 0 0
261 6.68842 24.79151 131.91176 0 0 0
262 6.79989 25.65033 132.41176 0 0 0
263 6.91136 25.64673 133.40553 0 0 0
264 7.02284 26.50555 133.90553 0 0 0
265 7.13431 26.50194 134.89929 0 0 0
266 7.24578 27.36077 135.39929 0 0 0
267 7.35726 27.35716 136.39305 0 0 0
268 7.46873 28.21598 136.89305 0 0 0
269 7.58020 28.21238 137.88681 0 0 0
270 7.69168 29.07120 138.38681 0 0 0
271 7.80315 29.06760 139.38057 0 0 0
272 7.91463 29.92642 139.88057 0 0 0
273 8.02610 29.92282 140.87433 0 0 0
274 8.13757 30.78164 141.37433 0 0 0
275 8.24905 30.77804 142.36809 0 0 0
276 8.36052 31.63686 142.86809 0 0 0
277 8.47199 31.63326 143.86185 0 0 0
278 8.58347 32.49208 144.36185 0 0 0
279 8.69494 32.48848 145.35561 0 0 0
280 8.80641 33.34730 145.85561 0 0 0
281 8.91789 33.34370 146.84937 0 0 0
282 9.02936 34.20252 147.34937 0 0 0
283 9.14083 34.19892 148.34313 0 0 0
284 9.25231 35.05774 148.84313 0 0 0
285 9.36378 35.05413 149.83689 0 0 0
286 9.47526 35.91296 150.33689 0 0 0
287 9.58673 35.90935 151.33066 0 0 0
288 9.69820 36.76817 151.83066 0 0 0
289 9.80968 36.76457 152.82442 0 0 0
290 9.92115 37.62339 153.32442 0 0 0
291 10.03262 37.61979 154.31818 0 0 0
292 10.14410 38.47861 154.81818 0 0 0
293 10.25557 38.47501 155.81194 0 0 0
294 10.36704 39.33383 156.31194 0 0 0
295 10.47852 39.33023 157.30570 0 0 0
296 10.58999 40.18905 157.80570 0 0 0
297 10.70147 40.18545 158.79946 0 0 0
298 10.81294 41.04427 159.29946 0 0 0
299 10.92441 41.04067 160.29322 0 0 0
300 11.03589 41.89949 160.79322 0 0 0
301 11.14736 41.89589 161.78698 0 0 0
302 -0.99168 -0.38853 86.80087 0 0 0
303 -1.98336 -0.32417 86.91235 0 0 0
304 -2.97504 -0.19545 86.91235 0 0 0
305 -3.96672 -0.13109 87.02382 0 0 0
306 -4.95841 -0.00237 87.02382 0 0 0
307 -5.95009 0.06199 87.13530 0 0 0
308 -6.94177 0.19071 87.13530 0 0 0
309 -7.93345 0.25507 87.24677 0 0 0
310 -8.92513 0.38379 87.24677 0 0 0
311 -9.91681 0.44814 87.35824 0 0 0
312 -10.90849 0.57686 87.35824 0 0 0
313 -11.90017 0.64122 87.46972 0 0 0
314 -12.89186 0.76994 87.46972 0 0 0
315 -13.88354 0.83430 87.58119 0 0 0
316 -14.87522 0.96302 87.58119 0 0 0
317 -15.86690 1.02738 87.69266 0 0 0
318 -16.85858 1.15610 87.69266 0 0 0
319 -17.85026 1.22046 87.80414 0 0 0
320 -18.84194 1.34917 87.80414 0 0 0
321 -19.83362 1.41353 87.91561 0 0 0
322 -20.82530 1.54225 87.91561 0 0 0
323 -21.81699 1.60661 88.02708 0 0 0
324 -22.80867 1.73533 88.02708 0 0 0
325 -23.80035 1.79969 88.13856 0 0 0
326 -24.79203 1.92841 88.13856 0 0 0
327 -25.78371 1.99277 88.25003 0 0 0
328 -26.77539 2.12149 88.25003 0 0 0
329 -27.76707 2.18585 88.36150 0 0 0
330 -28.75875 2.31456 88.36150 0 0 0
331 -29.75043 2.37892 88.47298 0 0 0
332 -30.74212 2.50764 88.47298 0 0 0
333 -31.73380 2.57200 88.58445 0 0 0
334 -32.72548 2.70072 88.58445 0 0 0
335 -33.71716 2.76508 88.69593 0 0 0
336 -34.70884 2.89380 88.69593 0 0 0
337 -35.70052 2.95816 88.80740 0 0 0
338 -36.69220 3.08688 88.80740 0 0 0
339 -37.68388 3.15124 88.91887 0 0 0
340 -38.67557 3.27995 88.91887 0 0 0
341 -39.66725 3.34431 89.03035 0 0 0
342 -40.65893 3.47303 89.03035 0 0 0
343 -41.65061 3.53739 89.14182 0 0 0
344 -42.64229 3.66611 89.14182 0 0 0
345 -43.63397 3.73047 89.25329 0 0 0
346 -44.62565 3.85919 89.25329 0 0 0
347 -45.61733 3.92355 89.36477 0 0 0
348 -46.60901 4.05227 89.36477 0 0 0
349 -47.60070 4.11663 89.47624 0 0 0
350 -48.59238 4.24534 89.47624 0 0 0
351 -49.58406 4.30970 89.58771 0 0 0
352 -50.57574 4.43842 89.58771 0 0 0
353 -51.56742 4.50278 89.69919 0 0 0
354 -52.55910 4.63150 89.69919 0 0 0
355 -53.55078 4.69586 89.81066 0 0 0
356 -54.54246 4.82458 89.81066 0 0 0
357 -55.53414 4.88894 89.92213 0 0 0
358 -56.52583 5.01766 89.92213 0 0 0
359 -57.51751 5.08201 90.03361 0 0 0
360 -58.50919 5.21073 90.03361 0 0 0
361 -59.50087 5.27509 90.14508 0 0 0
362 -60.49255 5.40381 90.14508 0 0 0
363 -61.48423 5.46817 90.25656 0 0 0
364 -62.47591 5.59689 90.25656 0 0 0
365 -63.46759 5.66125 90.36803 0 0 0
366 -64.45928 5.78997 90.36803 0 0 0
367 -65.45096 5.85433 90.47950 0 0 0
368 -66.44264 5.98305 90.47950 0 0 0
369 -67.43432 6.04740 90.59098 0 0 0
370 -68.42600 6.17612 90.59098 0 0 0
371 -69.41768 6.24048 90.70245 0 0 0
372 -70.40936 6.36920 90.70245 0 0 0
373 -71.40104 6.43356 90.81392 0 0 0
374 -72.39272 6.56228 90.81392 0 0 0
375 -73.38441 6.62664 90.92540 0 0 0
376 -74.37609 6.75536 90.92540 0 0 0
377 -75.36777 6.81972 91.03687 0 0 0
378 -76.35945 6.94843 91.03687 0 0 0
379 -77.35113 7.01279 91.14834 0 0 0
380 -78.34281 7.14151 91.14834 0 0 0
381 -79.33449 7.20587 91.25982 0 0 0
382 -80.32617 7.33459 91.25982 0 0 0
383 -81.31785 7.39895 91.37129 0 0 0
384 -82.30954 7.52767 91.37129 0 0 0
385 -83.30122 7.59203 91.48277 0 0 0
386 -84.29290 7.72075 91.48277 0 0 0
387 -85.28458 7.78511 91.59424 0 0 0
388 -86.27626 7.91382 91.59424 0 0 0
389 -87.26794 7.97818 91.70571 0 0 0
390 -88.25962 8.10690 91.70571 0 0 0
391 -89.25130 8.17126 91.81719 0 0 0
392 -90.24299 8.29998 91.81719 0 0 0
393 -91.23467 8.36434 91.92866 0 0 0
394 -92.22635 8.49306 91.92866 0 0 0
395 -93.21803 8.55742 92.04013 0 0 0
396 -94.20971 8.68614 92.04013 0 0 0
397 -95.20139 8.75050 92.15161 0 0 0
398 -96.19307 8.87921 92.15161 0 0 0
399 -97.18475 8.94357 92.26308 0 0 0
400 -98.17643 9.07229 92.26308 0 0 0
401 -99.16812 9.13665 92.37455 0 0 0
402 0.99168 -0.61147 86.67216 0 0 0
403 1.98336 -0.67583 86.56068 0 0 0
404 2.97504 -0.80455 86.56068 0 0 0
405 3.96672 -0.86891 86.44921 0 0 0
406 4.95841 -0.99763 86.44921 0 0 0
407 5.95009 -1.06199 86.33773 0 0 0
408 6.94177 -1.19071 86.33773 0 0 0
409 7.93345 -1.25507 86.22626 0 0 0
410 8.92513 -1.38379 86.22626 0 0 0
411 9.91681 -1.44814 86.11479 0 0 0
412 10.90849 -1.57686 86.11479 0 0 0
413 11.90017 -1.64122 86.00331 0 0 0
414 12.89186 -1.76994 86.00331 0 0 0
415 13.88354 -1.83430 85.89184 0 0 0
416 14.87522 -1.96302 85.89184 0 0 0
417 15.86690 -2.02738 85.78037 0 0 0
418 16.85858 -2.15610 85.78037 0 0 0
419 17.85026 -2.22046 85.66889 0 0 0
420 18.84194 -2.34917 85.66889 0 0 0
421 19.83362 -2.41353 85.55742 0 0 0
422 20.82530 -2.54225 85.55742 0 0 0
423 21.81699 -2.60661 85.44595 0 0 0
424 22.80867 -2.73533 85.44595 0 0 0
425 23.80035 -2.79969 85.33447 0 0 0
426 24.79203 -2.92841 85.33447 0 0 0
427 25.78371 -2.99277 85.22300 0 0 0
428 26.77539 -3.12149 85.22300 0 0 0
429 27.76707 -3.18585 85.11153 0 0 0
430 28.75875 -3.31456 85.11153 0 0 0
431 29.75043 -3.37892 85.00005 0 0 0
432 30.74212 -3.50764 85.00005 0 0 0
433 31.73380 -3.57200 84.88858 0 0 0
434 32.72548 -3.70072 84.88858 0 0 0
435 33.71716 -3.76508 84.77710 0 0 0
436 34.70884 -3.89380 84.77710 0 0 0
437 35.70052 -3.95816 84.66563 0 0 0
438 36.69220 -4.08688 84.66563 0 0 0
439 37.68388 -4.15124 84.55416 0 0 0
440 38.67557 -4.27995 84.55416 0 0 0
441 39.66725 -4.34431 84.44268 0 0 0
442 40.65893 -4.47303 84.44268 0 0 0
443 41.65061 -4.53739 84.33121 0 0 0
444 42.64229 -4.66611 84.33121 0 0 0
445 43.63397 -4.73047 84.21974 0 0 0
446 44.62565 -4.85919 84.21974 0 0 0
447 45.61733 -4.92355 84.10826 0 0 0
448 46.60901 -5.05227 84.10826 0 0 0
449 47.60070 -5.11663 83.99679 0 0 0
450 48.59238 -5.24534 83.99679 0 0 0
451 49.58406 -5.30970 83.88532 0 0 0
452 50.57574 -5.43842 83.88532 0 0 0
453 51.56742 -5.50278 83.77384 0 0 0
454 52.55910 -5.63150 83.77384 0 0 0
455 53.55078 -5.69586 83.66237 0 0 0
456 54.54246 -5.82458 83.66237 0 0 0
457 55.53414 -5.88894 83.55090 0 0 0
458 56.52583 -6.01766 83.55090 0 0 0
459 57.51751 -6.08201 83.43942 0 0 0
460 58.50919 -6.21073 83.43942 0 0 0
461 59.50087 -6.27509 83.32795 0 0 0
462 60.49255 -6.40381 83.32795 0 0 0
463 61.48423 -6.46817 83.21647 0 0 0
464 62.47591 -6.59689 83.21647 0 0 0
465 63.46759 -6.66125 83.10500 0 0 0
466 64.45928 -6.78997 83.10500 0 0 0
467 65.45096 -6.85433 82.99353 0 0 0
468 66.44264 -6.98305 82.99353 0 0 0
469 67.43432 -7.04740 82.88205 0 0 0
470 68.42600 -7.17612 82.88205 0 0 0
471 69.41768 -7.24048 82.77058 0 0 0
472 70.40936 -7.36920 82.77058 0 0 0
473 71.40104 -7.43356 82.65911 0 0 0
474 72.39272 -7.56228 82.65911 0 0 0
475 73.38441 -7.62664 82.54763 0 0 0
476 74.37609 -7.75536 82.54763 0 0 0
477 75.36777 -7.81972 82.43616 0 0 0
478 76.35945 -7.94843 82.43616 0 0 0
479 77.35113 -8.01279 82.32469 0 0 0
480 78.34281 -8.14151 82.32469 0 0 0
481 79.33449 -8.20587 82.21321 0 0 0
482 80.32617 -8.33459 82.21321 0 0 0
483 81.31785 -8.39895 82.10174 0 0 0
484 82.30954 -8.52767 82.10174 0 0 0
485 83.30122 -8.59203 81.99026 0 0 0
486 84.29290 -8.72075 81.99026 0 0 0
487 85.28458 -8.78511 81.87879 0 0 0
488 86.27626 -8.91382 81.87879 0 0 0
489 87.26794 -8.97818 81.76732 0 0 0
490 88.25962 -9.10690 81.76732 0 0 0
491 89.25130 -9.17126 81.65584 0 0 0
492 90.24299 -9.29998 81.65584 0 0 0
493 91.23467 -9.36434 81.54437 0 0 0
494 92.22635 -9.49306 81.54437 0 0 0
495 93.21803 -9.55742 81.43290 0 0 0
496 94.20971 -9.68614 81.43290 0 0 0
497 95.20139 -9.75050 81.32142 0 0 0
498 96.19307 -9.87921 81.32142 0 0 0
499 97.18475 -9.94357 81.20995 0 0 0
500 98.17643 -10.07229 81.20995 0 0 0
501 99.16812 -10.13665 81.09848 0 0 0
ITEM: TIMESTEP
1000
ITEM: NUMBER OF ATOMS
501
ITEM: BOX BOUNDS pp pp pp
-1.0000000000000000e+03 1.0000000000000000e+03
-1.0000000000000000e+03 1.0000000000000000e+03
-1.0000000000000000e+03 1.0000000000000000e+03
ITEM: ATOMS id x y z ix iy iz
1 -0.11755 1.22265 2.53117 0 0 0
2 0.51068 0.69025 3.09934 0 0 0
3 0.19078 0.17545 3.90399 0 0 0
4 -0.47489 0.26926 4.65209 0 0 0
5 -0.29332 0.79304 5.47829 0 0 0
6 -0.36004 -0.06457 5.99438 0 0 0
7 -0.29743 -0.60876 6.76396 0 0 0
8 0.08496 -0.91955 7.55978 0 0 0
9 0.39166 -0.94215 8.49035 0 0 0
10 0.63240 -0.46620 9.41995 0 0 0
11 0.74823 0.18113 10.19231 0 0 0
12 0.26364 -0.05742 11.04921 0 0 0
13 0.05899 -0.43827 12.02835 0 0 0
14 -0.01431 -0.86289 12.89857 0 0 0
15 0.19705 -0.60022 13.81108 0 0 0
16 0.70803 -0.37572 14.59762 0 0 0
17 0.96238 -1.06609 15.24318 0 0 0
18 1.34363 -0.47829 15.89791 0 0 0
19 1.11947 -0.07978 16.71163 0 0 0
20 1.10515 -0.77822 17.41983 0 0 0
21 0.62886 -0.88991 18.28739 0 0 0
22 0.64704 -0.55279 19.18876 0 0 0
23 0.56684 -0.15127 20.05973 0 0 0
24 0.43371 0.00422 21.00220 0 0 0
25 1.06742 0.50646 21.54155 0 0 0
26 1.17868 1.12475 22.29929 0 0 0
27 1.29330 1.33882 23.26236 0 0 0
28 1.39020 1.09149 24.24863 0 0 0
29 1.17150 0.77266 25.10849 0 0 0
30 1.41668 1.03728 26.10535 0 0 0
31 1.87071 1.03950 26.95843 0 0 0
32 1.90969 1.42351 27.89159 0 0 0
33 1.71356 1.06761 28.85158 0 0 0
34 1.76883 0.46137 29.71662 0 0 0
35 1.91132 0.61507 30.65510 0 0 0
36 2.14998 0.35172 31.54043 0 0 0
37 1.96216 0.62793 32.43825 0 0 0
38 1.79433 1.01534 33.31323 0 0 0
39 1.30918 0.65637 34.04428 0 0 0
40 1.15443 0.33774 35.00858 0 0 0
41 0.84174 0.85941 35.69548 0 0 0
42 1.17951 0.45205 36.49752 0 0 0
43 1.29001 0.20738 37.46878 0 0 0
44 0.84370 0.38410 38.32877 0 0 0
45 0.79121 0.71556 39.29281 0 0 0
46 0.92286 0.09656 40.09437 0 0 0
47 0.81194 -0.70545 40.75878 0 0 0
48 1.02216 -0.51661 41.66639 0 0 0
49 0.55203 -0.14966 42.39896 0 0 0
50 0.61240 -0.22271 43.38329 0 0 0
51 0.68623 0.19160 44.29607 0 0 0
52 0.52625 -0.04296 45.23670 0 0 0
53 0.46351 -0.19237 46.21136 0 0 0
54 0.48204 0.40312 46.96230 0 0 0
55 0.07795 0.95311 47.70055 0 0 0
56 -0.32717 1.27453 48.61548 0 0 0
57 -0.53395 0.70966 49.44463 0 0 0
58 -0.02716 0.27592 50.26088 0 0 0
59 0.34606 0.49205 51.18337 0 0 0
60 1.15020 0.79790 51.77865 0 0 0
61 0.34631 0.75765 52.41006 0 0 0
62 0.25606 1.04701 53.29809 0 0 0
63 0.26374 0.21462 53.73393 0 0 0
64 -0.28322 -0.27133 54.38298 0 0 0
65 -0.65130 0.07628 55.25701 0 0 0
66 -0.43830 -0.04525 56.17146 0 0 0
67 -0.72419 0.00260 57.15246 0 0 0
68 -0.68381 0.13016 58.09280 0 0 0
69 -0.42976 -0.24351 59.00627 0 0 0
70 -0.48731 0.02619 59.95895 0 0 0
71 -0.23749 -0.01767 60.94418 0 0 0
72 -0.15035 -0.04533 61.86297 0 0 0
73 0.54531 0.01964 62.54002 0 0 0
74 0.76885 -0.21353 63.43422 0 0 0
75 0.89678 -0.49585 64.36395 0 0 0
76 1.31614 -0.52138 65.24915 0 0 0
77 1.67063 -0.32082 66.16516 0 0 0
78 1.39269 -0.48705 67.02375 0 0 0
79 0.75301 -0.35938 67.77299 0 0 0
80 1.01449 0.54611 68.12764 0 0 0
81 0.82146 0.27607 69.09103 0 0 0
82 0.32711 0.12978 69.99659 0 0 0
83 0.19529 -0.07136 70.96638 0 0 0
84 0.03668 -0.25620 72.03189 0 0 0
85 0.31045 0.66532 72.36589 0 0 0
86 0.09025 1.45985 72.86226 0 0 0
87 0.09787 1.18229 73.80814 0 0 0
88 0.51510 0.90868 74.63289 0 0 0
89 0.79979 0.70453 75.50293 0 0 0
90 0.63486 0.77660 76.48319 0 0 0
91 0.89225 0.81860 77.44276 0 0 0
92 1.35718 0.69846 78.29467 0 0 0
93 1.50307 0.43910 79.18381 0 0 0
94 1.23836 0.33119 80.12895 0 0 0
95 0.58985 0.11651 80.94900 0 0 0
96 0.27564 -0.11486 81.87704 0 0 0
97 0.20436 -0.04396 82.95574 0 0 0
98 -0.06966 0.15437 83.92553 0 0 0
99 -0.20492 -0.06008 84.82121 0 0 0
100 -0.69103 -0.29625 85.75914 0 0 0
101 -0.93587 -0.88280 86.47515 0 0 0
102 -1.23512 -1.71083 86.94844 0 0 0
103 -1.52715 -1.98526 87.83878 0 0 0
104 -1.58910 -2.83171 87.36972 0 0 0
105 -2.02255 -3.49749 88.00426 0 0 0
106 -1.96717 -4.30978 87.42600 0 0 0
107 -2.43671 -5.13050 87.28042 0 0 0
108 -2.74591 -6.16383 87.19081 0 0 0
109 -2.86748 -7.10700 87.09528 0 0 0
110 -2.82952 -8.03606 87.41860 0 0 0
111 -2.51418 -8.67850 86.79546 0 0 0
112 -2.95554 -9.45743 86.35780 0 0 0
113 -2.66718 -10.25063 85.77560 0 0 0
114 -2.31984 -11.10202 85.48808 0 0 0
115 -2.77284 -11.96797 85.88007 0 0 0
116 -2.18991 -12.67699 86.10133 0 0 0
117 -1.53747 -13.28057 86.36980 0 0 0
118 -1.11827 -14.20890 86.65432 0 0 0
119 -0.82220 -15.23187 86.69951 0 0 0
120 -0.93598 -16.21742 86.75923 0 0 0
121 -0.97157 -17.18655 86.92069 0 0 0
122 -1.48248 -17.96090 86.66032 0 0 0
123 -0.78762 -18.67366 86.43572 0 0 0
124 -1.01570 -19.68316 86.28819 0 0 0
125 -1.47984 -20.46895 86.65792 0 0 0
126 -1.96894 -21.31894 87.08080 0 0 0
127 -1.86262 -22.22287 87.30089 0 0 0
128 -1.87537 -23.23222 87.22783 0 0 0
129 -1.48708 -24.01476 86.83296 0 0 0
130 -1.36528 -24.89193 87.19837 0 0 0
131 -1.89262 -25.66106 87.34035 0 0 0
132 -2.40346 -26.29365 86.73344 0 0 0
133 -2.47232 -27.22683 86.71956 0 0 0
134 -2.12765 -28.18927 86.98219 0 0 0
135 -2.52802 -29.12248 86.84792 0 0 0
136 -3.13429 -29.93061 86.95524 0 0 0
137 -3.41574 -30.91493 86.54639 0 0 0
138 -3.83266 -31.85454 86.53729 0 0 0
139 -3.75824 -32.75228 86.86785 0 0 0
140 -3.92900 -33.75295 87.07532 0 0 0
141 -3.85998 -34.71920 87.25836 0 0 0
142 -3.88250 -35.63432 86.69171 0 0 0
143 -3.81452 -36.54952 86.33378 0 0 0
144 -3.65545 -37.44983 86.14964 0 0 0
145 -4.22029 -38.15669 86.52331 0 0 0
146 -4.50106 -39.03542 86.50425 0 0 0
147 -4.68517 -39.95440 86.35560 0 0 0
148 -4.41909 -40.85556 86.46603 0 0 0
149 -4.79983 -41.72607 86.54802 0 0 0
150 -5.48154 -42.46012 86.77470 0 0 0
151 -5.96962 -43.34327 86.92295 0 0 0
152 -5.92623 -44.18706 86.46092 0 0 0
153 -6.02911 -45.12530 86.61928 0 0 0
154 -6.12151 -45.85541 87.28294 0 0 0
155 -6.41354 -46.65611 87.78567 0 0 0
156 -6.01325 -47.42280 87.28652 0 0 0
157 -6.01869 -48.41188 87.24648 0 0 0
158 -6.26284 -49.40614 87.22499 0 0 0
159 -6.74487 -50.00160 87.86209 0 0 0
160 -6.34400 -50.90909 87.92194 0 0 0
161 -6.84968 -51.71887 87.48461 0 0 0
162 -6.81582 -52.71999 87.13523 0 0 0
163 -6.74369 -53.72663 86.91449 0 0 0
164 -6.90353 -54.75804 86.97681 0 0 0
165 -7.24382 -55.48625 87.70749 0 0 0
166 -7.96752 -56.07395 87.32412 0 0 0
167 -8.04309 -57.03130 87.11034 0 0 0
168 -7.81295 -57.98814 86.98860 0 0 0
169 -8.26353 -58.72607 86.54074 0 0 0
170 -8.65102 -59.68901 86.54079 0 0 0
171 -8.90604 -60.59459 86.36788 0 0 0
172 -9.05293 -61.51359 86.05125 0 0 0
173 -8.56584 -62.38440 86.29674 0 0 0
174 -8.45208 -63.29863 86.39657 0 0 0
175 -9.25989 -63.71744 86.78245 0 0 0
176 -9.37489 -64.72188 86.89076 0 0 0
177 -9.31398 -65.73031 86.95947 0 0 0
178 -9.15335 -66.64184 87.01990 0 0 0
179 -9.26843 -67.61562 87.41990 0 0 0
180 -8.83613 -68.50495 87.36639 0 0 0
181 -8.72548 -69.40044 86.90429 0 0 0
182 -8.91251 -70.40483 86.88241 0 0 0
183 -9.12054 -71.19233 86.33289 0 0 0
184 -8.46052 -71.74343 85.86498 0 0 0
185 -8.67287 -72.69010 85.85941 0 0 0
186 -9.17260 -73.45607 86.32945 0 0 0
187 -9.79944 -74.17656 86.36114 0 0 0
188 -10.18051 -74.56977 87.18854 0 0 0
189 -10.86856 -74.74677 87.86331 0 0 0
190 -10.40437 -75.64523 87.68033 0 0 0
191 -10.05075 -76.07316 86.85223 0 0 0
192 -9.67494 -77.01981 86.86465 0 0 0
193 -9.91861 -78.02743 86.65283 0 0 0
194 -9.47619 -78.67264 86.08821 0 0 0
195 -9.30701 -78.73368 85.11643 0 0 0
196 -9.87460 -79.46453 85.35773 0 0 0
197 -10.18570 -79.95521 84.53771 0 0 0
198 -10.91326 -80.63618 84.36045 0 0 0
199 -11.34809 -81.43156 84.33796 0 0 0
200 -12.27610 -81.66083 84.12933 0 0 0
201 -11.75082 -81.95524 83.41747 0 0 0
202 -0.72577 -0.66189 87.45199 0 0 0
203 -0.40788 -0.05426 88.12866 0 0 0
204 -0.44813 0.09759 89.18969 0 0 0
205 -0.25763 0.88185 89.85294 0 0 0
206 0.40163 1.07696 90.56362 0 0 0
207 0.24921 1.61869 91.35134 0 0 0
208 0.08587 2.08504 92.27803 0 0 0
209 0.53391 2.68324 92.89277 0 0 0
210 0.85885 3.29684 93.59519 0 0 0
211 0.26305 3.87362 94.32745 0 0 0
212 0.20002 4.35399 95.15792 0 0 0
213 0.41608 4.72142 96.05871 0 0 0
214 0.40189 4.97724 97.00189 0 0 0
215 0.90004 4.90171 97.85041 0 0 0
216 1.62544 4.96690 98.50421 0 0 0
217 2.11770 5.61812 98.95807 0 0 0
218 2.33698 6.50760 99.24507 0 0 0
219 2.58344 7.08110 100.01820 0 0 0
220 2.69223 7.53205 100.86569 0 0 0
221 3.29961 7.99217 101.68212 0 0 0
222 2.96481 8.65585 102.32765 0 0 0
223 3.23576 9.12749 103.11750 0 0 0
224 2.97074 9.34799 104.04155 0 0 0
225 3.31360 9.45268 104.96704 0 0 0
226 3.30455 10.37595 105.52312 0 0 0
227 3.45827 10.95593 106.36029 0 0 0
228 3.61588 11.38150 107.30831 0 0 0
229 4.01969 11.41414 108.16368 0 0 0
230 4.07669 11.89443 108.97740 0 0 0
231 4.60056 12.37043 109.64547 0 0 0
232 4.41534 12.70455 110.59536 0 0 0
233 4.83532 13.07692 111.43603 0 0 0
234 4.99052 12.94793 112.40577 0 0 0
235 5.56722 13.00000 113.19251 0 0 0
236 5.79558 13.82595 113.66681 0 0 0
237 5.88279 14.07439 114.63913 0 0 0
238 6.36101 14.28840 115.48881 0 0 0
239 6.50450 14.38400 116.39472 0 0 0
240 6.36801 14.84769 117.23460 0 0 0
241 6.54425 15.02804 118.15992 0 0 0
242 6.28998 15.44398 119.05108 0 0 0
243 6.16173 16.40162 119.24540 0 0 0
244 6.01352 17.18543 119.90959 0 0 0
245 5.72474 17.39190 120.84471 0 0 0
246 5.77102 18.10546 121.81184 0 0 0
247 6.28983 18.74727 122.27103 0 0 0
248 5.93822 19.16218 123.09798 0 0 0
249 6.56199 19.81534 123.57814 0 0 0
250 6.72128 20.29016 124.51006 0 0 0
251 6.62635 20.74485 125.35057 0 0 0
252 6.75966 21.44206 126.04022 0 0 0
253 6.99272 21.99283 126.81459 0 0 0
254 6.57372 22.54878 127.50898 0 0 0
255 6.40372 22.95173 128.37818 0 0 0
256 6.12991 23.20199 129.44446 0 0 0
257 6.59877 24.04505 129.70963 0 0 0
258 6.56850 24.99282 129.95621 0 0 0
259 6.79028 24.86485 130.86837 0 0 0
260 6.44216 24.45744 131.71245 0 0 0
261 6.48087 24.59810 132.64053 0 0 0
262 6.61766 24.83432 133.56689 0 0 0
263 7.19361 24.75605 134.34033 0 0 0
264 7.70206 25.25661 135.00251 0 0 0
265 7.39255 26.12378 135.54237 0 0 0
266 7.10960 26.84444 136.26390 0 0 0
267 7.42355 27.52023 136.83888 0 0 0
268 7.66621 28.04212 137.65995 0 0 0
269 8.23771 28.73889 138.14912 0 0 0
270 8.20680 29.35843 138.85753 0 0 0
271 8.60054 29.44732 139.75526 0 0 0
272 8.95554 29.65567 140.67325 0 0 0
273 9.04361 30.37865 141.37248 0 0 0
274 9.06551 31.14346 142.07621 0 0 0
275 9.53035 31.88449 142.35257 0 0 0
276 8.92917 32.64300 142.57354 0 0 0
277 9.16243 33.12526 143.42800 0 0 0
278 9.20066 33.73054 144.16944 0 0 0
279 9.05127 34.38080 144.90883 0 0 0
280 9.59113 35.01401 145.59916 0 0 0
281 9.38657 35.24517 146.51071 0 0 0
282 9.79749 35.64404 147.34701 0 0 0
283 9.87769 35.91030 148.26505 0 0 0
284 9.60929 35.92456 149.19771 0 0 0
285 9.47896 36.67613 149.80649 0 0 0
286 10.32090 36.32889 150.20435 0 0 0
287 10.35924 36.98651 150.90079 0 0 0
288 10.03746 37.85998 151.37272 0 0 0
289 9.19233 38.14776 151.94618 0 0 0
290 9.25300 38.76041 152.69796 0 0 0
291 9.28279 38.88272 153.68047 0 0 0
292 9.57425 39.77240 153.98130 0 0 0
293 9.94333 39.17863 154.62726 0 0 0
294 9.78218 39.96457 155.25336 0 0 0
295 9.62947 40.16325 156.15546 0 0 0
296 10.07623 40.07257 156.95169 0 0 0
297 10.28076 40.06528 157.89582 0 0 0
298 10.33592 40.95699 158.29147 0 0 0
299 10.27196 41.04568 159.20340 0 0 0
300 10.79901 40.28652 159.38108 0 0 0
301 11.80295 40.25689 159.22744 0 0 0
302 -1.82534 -0.63884 86.60904 0 0 0
303 -2.70001 -1.10345 86.74944 0 0 0
304 -3.64532 -0.89683 86.69111 0 0 0
305 -4.48482 -0.50952 86.79660 0 0 0
306 -5.42812 -0.72289 86.93803 0 0 0
307 -6.36520 -0.38072 87.06267 0 0 0