LAMMPS data file for network

1939 atoms
7338 bonds
50166 angles

1 atom types
1 bond types
1 angle types

-30 500 xlo xhi
-30 500 ylo yhi
-20 180 zlo zhi

Masses

1 1

Atoms

1   1   1   2.916   51.341   0
2   1   1   2.894   49.301   0
3   1   1   3.077   46.94   0
4   1   1   2.807   52.928   0
5   1   1   3.531   40.528   0
6   1   1   3.624   43.019   0
7   1   1   3.781   38.157   0
8   1   1   4.354   51.787   0
9   1   1   4.41   49.787   0
10   1   1   4.462   47.479   0
11   1   1   4.129   45.423   0
12   1   1   4.658   54.751   0
13   1   1   4.315   41.256   0
14   1   1   4.991   39.237   0
15   1   1   5.192   43.51   0
16   1   1   5.227   59.778   0
17   1   1   5.217   37.826   0
18   1   1   5.189   34.2   0
19   1   1   5.288   36.072   0
20   1   1   4.991   61.533   0
21   1   1   5.403   57.141   0
22   1   1   5.751   31.388   0
23   1   1   5.858   52.588   0
24   1   1   5.892   49.625   0
25   1   1   6.014   47.087   0
26   1   1   5.827   53.964   0
27   1   1   6.417   56.249   0
28   1   1   6.613   44.193   0
29   1   1   6.561   42.28   0
30   1   1   6.697   59.522   0
31   1   1   6.722   38.43   0
32   1   1   6.646   33.556   0
33   1   1   6.755   36.025   0
34   1   1   6.949   40.609   0
35   1   1   7.024   30.535   0
36   1   1   7.356   57.627   0
37   1   1   7.415   52.346   0
38   1   1   7.192   50.616   0
39   1   1   7.328   48.625   0
40   1   1   7.453   46.434   0
41   1   1   7.891   54.843   0
42   1   1   8.06   43.82   0
43   1   1   8.136   59.786   0
44   1   1   8.115   39.069   0
45   1   1   8.192   33.853   0
46   1   1   8.213   36.746   0
47   1   1   8.335   42.341   0
48   1   1   8.378   39.949   0
49   1   1   8.588   62.539   0
50   1   1   8.676   32.423   0
51   1   1   8.602   29.867   0
52   1   1   8.681   57.554   0
53   1   1   8.813   53.2   0
54   1   1   8.78   50.954   0
55   1   1   8.776   48.802   0
56   1   1   8.866   28.122   0
57   1   1   8.915   47.987   0
58   1   1   9.02   45.341   0
59   1   1   9.28   64.628   0
60   1   1   9.371   55.706   0
61   1   1   9.512   31.81   0
62   1   1   9.643   43.708   0
63   1   1   9.736   61.385   0
64   1   1   9.606   34.362   0
65   1   1   9.745   59.113   0
66   1   1   9.808   37.072   0
67   1   1   9.794   41.922   0
68   1   1   9.901   39.389   0
69   1   1   9.966   62.52   0
70   1   1   10.227   72.703   0
71   1   1   10.315   69.974   0
72   1   1   10.281   67.16   0
73   1   1   10.29   52.798   0
74   1   1   10.251   49.938   0
75   1   1   10.255   28.745   0
76   1   1   9.746   27.891   0
77   1   1   10.302   46.81   0
78   1   1   10.53   32.786   0
79   1   1   10.648   64.778   0
80   1   1   10.803   55.887   0
81   1   1   11.016   43.307   0
82   1   1   11.312   67.233   0
83   1   1   11.102   59.101   0
84   1   1   11.184   37.596   0
85   1   1   11.19   35.766   0
86   1   1   11.358   41.948   0
87   1   1   11.488   39.737   0
88   1   1   11.497   61.717   0
89   1   1   11.626   31.4   0
90   1   1   11.688   74.356   0
91   1   1   11.756   72.455   0
92   1   1   11.502   59.976   0
93   1   1   11.885   58.359   0
94   1   1   11.719   54.071   0
95   1   1   11.793   69.871   0
96   1   1   11.834   51.972   0
97   1   1   11.89   49.202   0
98   1   1   11.733   28.396   0
99   1   1   11.728   24.694   0
100   1   1   11.788   46.291   0
101   1   1   11.98   30.339   0
102   1   1   12.122   34.227   0
103   1   1   12.155   64.615   0
104   1   1   11.979   76.823   0
105   1   1   12.589   48.386   0
106   1   1   12.626   67.073   0
107   1   1   12.533   45.47   0
108   1   1   12.625   42.581   0
109   1   1   12.597   36.681   0
110   1   1   12.828   68.894   0
111   1   1   13.006   58.637   0
112   1   1   12.985   40.517   0
113   1   1   12.856   38.338   0
114   1   1   13.032   34.809   0
115   1   1   12.948   61.379   0
116   1   1   13.033   32.609   0
117   1   1   13.092   75.247   0
118   1   1   13.182   71.641   0
119   1   1   12.743   55.505   0
120   1   1   13.32   52.329   0
121   1   1   13.315   50.094   0
122   1   1   13.311   27.538   0
123   1   1   12.93   25.711   0
124   1   1   13.477   46.404   0
125   1   1   13.399   30.043   0
126   1   1   13.53   56.557   0
127   1   1   13.553   23.405   0
128   1   1   13.603   64.709   0
129   1   1   13.734   70.06   0
130   1   1   13.998   48.024   0
131   1   1   13.821   66.383   0
132   1   1   14.106   43.805   0
133   1   1   14.161   60.357   0
134   1   1   14.148   36.986   0
135   1   1   14.415   68.582   0
136   1   1   14.364   58.63   0
137   1   1   14.37   41.239   0
138   1   1   14.335   38.932   0
139   1   1   14.395   34.646   0
140   1   1   14.294   73.765   0
141   1   1   14.598   63.125   0
142   1   1   14.51   32.252   0
143   1   1   14.808   72.125   0
144   1   1   14.359   55.288   0
145   1   1   14.687   45.04   0
146   1   1   14.726   53.244   0
147   1   1   14.714   50.642   0
148   1   1   14.687   26.652   0
149   1   1   14.85   75.398   0
150   1   1   14.991   47.118   0
151   1   1   14.877   29.9   0
152   1   1   15.075   56.808   0
153   1   1   14.847   23.973   0
154   1   1   15.18   65.924   0
155   1   1   15.582   48.353   0
156   1   1   15.598   70.495   0
157   1   1   15.541   22.665   0
158   1   1   15.66   43.469   0
159   1   1   15.766   60.278   0
160   1   1   15.703   37.253   0
161   1   1   15.81   68.43   0
162   1   1   15.769   40.104   0
163   1   1   15.807   34.107   0
164   1   1   16.034   63.622   0
165   1   1   15.976   61.832   0
166   1   1   15.988   32.124   0
167   1   1   16.202   51.55   0
168   1   1   16.147   26.468   0
169   1   1   16.391   74.628   0
170   1   1   16.376   66.403   0
171   1   1   16.38   45.629   0
172   1   1   16.314   28.846   0
173   1   1   16.443   55.246   0
174   1   1   16.538   57.556   0
175   1   1   16.672   71.305   0
176   1   1   16.655   79.989   0
177   1   1   16.957   73.576   0
178   1   1   16.886   49.54   0
179   1   1   16.773   47.235   0
180   1   1   17.055   69.723   0
181   1   1   16.392   24.064   0
182   1   1   16.833   22.499   0
183   1   1   17.108   77.469   0
184   1   1   17.041   42.653   0
185   1   1   16.818   41.532   0
186   1   1   17.282   58.694   0
187   1   1   17.2   53.501   0
188   1   1   17.19   37.686   0
189   1   1   17.062   35.434   0
190   1   1   17.24   39.509   0
191   1   1   17.326   33.951   0
192   1   1   17.514   64.805   0
193   1   1   17.473   63.402   0
194   1   1   17.55   61.478   0
195   1   1   17.466   31.597   0
196   1   1   17.216   82.29   0
197   1   1   17.959   78.993   0
198   1   1   17.562   51.166   0
199   1   1   17.642   25.704   0
200   1   1   17.976   75.356   0
201   1   1   17.834   67.889   0
202   1   1   17.763   45.294   0
203   1   1   17.701   28.94   0
204   1   1   17.873   55.389   0
205   1   1   17.991   81.068   0
206   1   1   18.233   57.214   0
207   1   1   18.304   71.888   0
208   1   1   18.279   48.537   0
209   1   1   18.308   70.276   0
210   1   1   18.419   22.865   0
211   1   1   18.594   43.492   0
212   1   1   18.538   41.126   0
213   1   1   18.709   59.097   0
214   1   1   18.859   54.516   0
215   1   1   18.691   50.677   0
216   1   1   18.676   36.571   0
217   1   1   18.396   35.513   0
218   1   1   18.737   39.162   0
219   1   1   18.763   33.807   0
220   1   1   18.701   27.942   0
221   1   1   19.028   66.136   0
222   1   1   18.819   62.15   0
223   1   1   19.039   31.748   0
224   1   1   19.165   68.921   0
225   1   1   19.196   77.79   0
226   1   1   19.119   25.042   0
227   1   1   19.286   76.128   0
228   1   1   19.305   74.197   0
229   1   1   19.328   29.244   0
230   1   1   19.203   82.212   0
231   1   1   18.919   45.764   0
232   1   1   19.638   57.488   0
233   1   1   19.585   47.798   0
234   1   1   19.835   72.096   0
235   1   1   19.855   22.322   0
236   1   1   20.08   64.074   0
237   1   1   19.999   43.278   0
238   1   1   19.976   42.119   0
239   1   1   19.941   60.882   0
240   1   1   20.183   55.84   0
241   1   1   19.614   53.829   0
242   1   1   20.081   50.903   0
243   1   1   19.768   36.821   0
244   1   1   20.224   20.321   0
245   1   1   20.322   40.29   0
246   1   1   20.208   33.523   0
247   1   1   20.435   81.175   0
248   1   1   20.515   58.839   0
249   1   1   20.455   30.727   0
250   1   1   20.507   79.206   0
251   1   1   20.536   68.007   0
252   1   1   20.532   48.82   0
253   1   1   20.836   78.05   0
254   1   1   20.617   38.335   0
255   1   1   20.546   24.845   0
256   1   1   20.393   75.161   0
257   1   1   20.731   52.911   0
258   1   1   20.696   29.046   0
259   1   1   20.772   27.047   0
260   1   1   20.935   62.233   0
261   1   1   20.972   35.505   0
262   1   1   21.074   70.465   0
263   1   1   21.289   73.126   0
264   1   1   21.184   46.854   0
265   1   1   21.225   66.127   0
266   1   1   21.333   22.696   0
267   1   1   21.583   76.547   0
268   1   1   21.706   68.98   0
269   1   1   21.506   63.785   0
270   1   1   21.458   44.704   0
271   1   1   21.561   41.685   0
272   1   1   21.544   57.044   0
273   1   1   21.565   54.742   0
274   1   1   21.595   51.012   0
275   1   1   21.67   21.061   0
276   1   1   20.958   18.915   0
277   1   1   21.774   40.017   0
278   1   1   21.523   36.65   0
279   1   1   21.829   33.077   0
280   1   1   21.788   81.2   0
281   1   1   22.12   84.596   0
282   1   1   21.942   59.947   0
283   1   1   21.899   30.699   0
284   1   1   21.834   48.966   0
285   1   1   22.247   79.289   0
286   1   1   22.08   38.524   0
287   1   1   22.196   24.63   0
288   1   1   22.154   52.5   0
289   1   1   22.269   29.268   0
290   1   1   22.171   26.855   0
291   1   1   21.759   61.309   0
292   1   1   22.416   43.426   0
293   1   1   22.579   67.803   0
294   1   1   22.504   65.082   0
295   1   1   22.591   35.196   0
296   1   1   22.086   74.604   0
297   1   1   22.984   86.001   0
298   1   1   22.698   71.43   0
299   1   1   22.773   47.222   0
300   1   1   22.584   88.516   0
301   1   1   23.053   76.821   0
302   1   1   23.038   69.74   0
303   1   1   23.046   63.13   0
304   1   1   23.187   44.593   0
305   1   1   22.92   56.616   0
306   1   1   23.097   51.278   0
307   1   1   23.017   21.837   0
308   1   1   23.227   54.438   0
309   1   1   23.32   33.157   0
310   1   1   22.957   20.262   0
311   1   1   22.622   19.242   0
312   1   1   23.446   83.125   0
313   1   1   23.619   59.253   0
314   1   1   23.393   41.341   0
315   1   1   23.913   78.015   0
316   1   1   23.659   80.298   0
317   1   1   23.573   37.924   0
318   1   1   23.553   24.302   0
319   1   1   23.524   86.744   0
320   1   1   23.58   30.636   0
321   1   1   23.573   28.866   0
322   1   1   23.685   27.257   0
323   1   1   24.079   66.668   0
324   1   1   23.94   36.294   0
325   1   1   24.068   81.605   0
326   1   1   24.177   85.062   0
327   1   1   24.177   72.315   0
328   1   1   24.122   62.363   0
329   1   1   24.214   48.269   0
330   1   1   24.293   75.081   0
331   1   1   24.328   64.627   0
332   1   1   24.29   40.421   0
333   1   1   24.355   74.117   0
334   1   1   24.501   69.232   0
335   1   1   24.434   45.566   0
336   1   1   24.412   43.051   0
337   1   1   24.596   57.112   0
338   1   1   24.514   52.648   0
339   1   1   24.55   50.2   0
340   1   1   24.651   54.735   0
341   1   1   24.771   34.429   0
342   1   1   24.714   32.113   0
343   1   1   24.699   21.25   0
344   1   1   25.016   83.606   0
345   1   1   24.993   60.137   0
346   1   1   25.057   58.017   0
347   1   1   24.897   78.64   0
348   1   1   24.803   89.887   0
349   1   1   25.052   38.703   0
350   1   1   25.17   24.225   0
351   1   1   25.303   41.673   0
352   1   1   25.25   29.817   0
353   1   1   25.056   27.293   0
354   1   1   25.394   26.205   0
355   1   1   25.477   76.5   0
356   1   1   25.463   67.07   0
357   1   1   25.45   35.803   0
358   1   1   25.688   81.299   0
359   1   1   25.707   65.479   0
360   1   1   25.648   88.164   0
361   1   1   25.686   71.576   0
362   1   1   25.64   61.977   0
363   1   1   25.767   47.716   0
364   1   1   25.64   64.347   0
365   1   1   25.935   74.216   0
366   1   1   25.928   69.235   0
367   1   1   25.859   44.71   0
368   1   1   25.306   22.718   0
369   1   1   25.966   56.938   0
370   1   1   25.6   51.4   0
371   1   1   25.751   20.101   0
372   1   1   25.911   54.394   0
373   1   1   26.153   33.006   0
374   1   1   26.412   84.408   0
375   1   1   26.375   59.151   0
376   1   1   26.393   49.438   0
377   1   1   26.007   91.737   0
378   1   1   26.51   79.522   0
379   1   1   26.617   73.16   0
380   1   1   26.44   39.906   0
381   1   1   26.357   34.245   0
382   1   1   26.278   38.271   0
383   1   1   26.55   24.191   0
384   1   1   26.693   86.596   0
385   1   1   26.668   42.39   0
386   1   1   26.632   30.867   0
387   1   1   26.726   28.724   0
388   1   1   26.865   46.326   0
389   1   1   26.879   52.559   0
390   1   1   26.749   26.203   0
391   1   1   26.883   90.587   0
392   1   1   26.94   78.668   0
393   1   1   26.914   76.381   0
394   1   1   26.963   67.975   0
395   1   1   26.866   36.853   0
396   1   1   27.15   82.175   0
397   1   1   26.946   20.672   0
398   1   1   27.158   88.787   0
399   1   1   27.131   70.614   0
400   1   1   27.199   61.382   0
401   1   1   27.209   47.746   0
402   1   1   26.891   64.495   0
403   1   1   27.583   69.143   0
404   1   1   27.371   44.943   0
405   1   1   27.438   56.632   0
406   1   1   27.596   22.411   0
407   1   1   27.963   84.641   0
408   1   1   27.876   74.254   0
409   1   1   27.884   59.224   0
410   1   1   27.932   49.38   0
411   1   1   27.965   72.473   0
412   1   1   28.08   66.639   0
413   1   1   28.056   62.98   0
414   1   1   28.035   33.58   0
415   1   1   27.826   19.65   0
416   1   1   28.012   41.055   0
417   1   1   28.009   38.98   0
418   1   1   27.898   24.723   0
419   1   1   28.248   86.653   0
420   1   1   28.125   54.963   0
421   1   1   28.149   51.204   0
422   1   1   28.107   43.022   0
423   1   1   27.968   31.833   0
424   1   1   28.047   29.655   0
425   1   1   28.177   27.543   0
426   1   1   28.307   53.301   0
427   1   1   28.291   26.719   0
428   1   1   28.491   90.743   0
429   1   1   28.428   79.043   0
430   1   1   28.434   76.978   0
431   1   1   28.47   36.524   0
432   1   1   28.535   83.047   0
433   1   1   28.573   80.951   0
434   1   1   28.697   67.189   0
435   1   1   28.457   89.026   0
436   1   1   28.699   60.011   0
437   1   1   28.403   46.681   0
438   1   1   28.989   34.874   0
439   1   1   28.874   61.963   0
440   1   1   28.894   70.011   0
441   1   1   28.903   45.308   0
442   1   1   29.197   77.796   0
443   1   1   29.0   57.468   0
444   1   1   28.921   21.071   0
445   1   1   29.156   64.963   0
446   1   1   29.313   22.216   0
447   1   1   29.398   87.293   0
448   1   1   29.354   74.336   0
449   1   1   29.225   49.236   0
450   1   1   29.279   72.828   0
451   1   1   29.334   19.252   0
452   1   1   29.49   40.947   0
453   1   1   29.499   38.272   0
454   1   1   29.445   25.272   0
455   1   1   29.77   84.963   0
456   1   1   29.604   55.606   0
457   1   1   29.669   51.001   0
458   1   1   29.506   43.164   0
459   1   1   29.697   32.742   0
460   1   1   29.492   29.714   0
461   1   1   29.719   52.801   0
462   1   1   29.875   27.946   0
463   1   1   29.996   26.821   0
464   1   1   30.012   82.054   0
465   1   1   29.779   80.573   0
466   1   1   30.057   76.831   0
467   1   1   29.99   67.04   0
468   1   1   30.103   89.881   0
469   1   1   30.179   59.959   0
470   1   1   30.205   24.433   0
471   1   1   30.209   35.779   0
472   1   1   30.234   33.915   0
473   1   1   30.219   62.431   0
474   1   1   30.412   71.411   0
475   1   1   30.485   68.805   0
476   1   1   30.33   46.773   0
477   1   1   30.561   78.755   0
478   1   1   30.556   57.184   0
479   1   1   30.722   64.932   0
480   1   1   30.641   21.4   0
481   1   1   30.521   87.465   0
482   1   1   30.889   48.69   0
483   1   1   30.83   74.255   0
484   1   1   31.064   19.887   0
485   1   1   30.94   40.688   0
486   1   1   30.965   38.777   0
487   1   1   31.177   85.741   0
488   1   1   31.208   83.879   0
489   1   1   31.085   51.053   0
490   1   1   31.081   43.446   0
491   1   1   31.142   31.656   0
492   1   1   30.552   72.404   0
493   1   1   31.182   55.564   0
494   1   1   31.301   53.385   0
495   1   1   31.334   28.492   0
496   1   1   31.132   26.252   0
497   1   1   31.611   81.772   0
498   1   1   31.6   76.634   0
499   1   1   31.656   65.997   0
500   1   1   31.594   90.17   0
501   1   1   31.549   59.108   0
502   1   1   31.62   24.459   0
503   1   1   31.609   36.472   0
504   1   1   31.606   34.982   0
505   1   1   31.593   33.222   0
506   1   1   31.749   62.984   0
507   1   1   31.783   60.934   0
508   1   1   31.874   92.099   0
509   1   1   31.867   71.314   0
510   1   1   31.913   69.157   0
511   1   1   31.849   46.219   0
512   1   1   32.082   44.376   0
513   1   1   31.961   88.462   0
514   1   1   31.882   79.733   0
515   1   1   31.919   57.02   0
516   1   1   32.132   23.007   0
517   1   1   31.961   39.441   0
518   1   1   32.004   18.783   0
519   1   1   32.303   47.998   0
520   1   1   32.403   74.208   0
521   1   1   32.436   20.942   0
522   1   1   32.605   86.233   0
523   1   1   32.602   84.35   0
524   1   1   32.553   50.576   0
525   1   1   32.443   49.368   0
526   1   1   32.512   43.082   0
527   1   1   32.619   30.432   0
528   1   1   32.776   55.971   0
529   1   1   32.032   41.46   0
530   1   1   32.742   53.536   0
531   1   1   32.83   27.527   0
532   1   1   32.974   78.342   0
533   1   1   33.108   19.37   0
534   1   1   32.969   82.402   0
535   1   1   32.843   76.692   0
536   1   1   32.945   66.164   0
537   1   1   33.059   89.906   0
538   1   1   33.132   72.832   0
539   1   1   33.027   59.008   0
540   1   1   32.92   24.939   0
541   1   1   33.088   36.973   0
542   1   1   33.084   34.664   0
543   1   1   33.081   32.739   0
544   1   1   33.154   63.942   0
545   1   1   33.17   61.55   0
546   1   1   32.952   38.948   0
547   1   1   33.394   92.201   0
548   1   1   33.306   70.848   0
549   1   1   33.318   68.051   0
550   1   1   33.285   45.471   0
551   1   1   33.387   87.91   0
552   1   1   33.534   79.454   0
553   1   1   33.664   94.43   0
554   1   1   33.53   23.685   0
555   1   1   33.72   48.175   0
556   1   1   33.804   21.699   0
557   1   1   34.0   18.497   0
558   1   1   34.165   86.214   0
559   1   1   33.963   84.001   0
560   1   1   34.031   50.279   0
561   1   1   34.02   43.022   0
562   1   1   33.931   31.087   0
563   1   1   34.158   57.047   0
564   1   1   34.103   55.274   0
565   1   1   34.576   95.151   0
566   1   1   34.298   52.489   0
567   1   1   34.202   41.194   0
568   1   1   34.185   29.282   0
569   1   1   34.243   26.481   0
570   1   1   34.264   20.326   0
571   1   1   34.489   82.335   0
572   1   1   34.388   76.725   0
573   1   1   34.423   66.129   0
574   1   1   34.577   89.744   0
575   1   1   34.589   74.181   0
576   1   1   34.383   59.772   0
577   1   1   34.593   62.349   0
578   1   1   34.327   36.706   0
579   1   1   34.673   35.102   0
580   1   1   34.56   32.843   0
581   1   1   34.959   64.019   0
582   1   1   34.831   92.329   0
583   1   1   34.867   71.522   0
584   1   1   34.889   68.74   0
585   1   1   34.819   46.565   0
586   1   1   34.766   79.355   0
587   1   1   35.299   75.259   0
588   1   1   34.881   45.057   0
589   1   1   35.115   24.018   0
590   1   1   35.136   47.856   0
591   1   1   35.288   38.241   0
592   1   1   35.415   21.659   0
593   1   1   35.435   87.622   0
594   1   1   35.62   60.279   0
595   1   1   35.37   18.294   0
596   1   1   35.586   85.51   0
597   1   1   35.604   50.17   0
598   1   1   35.61   43.132   0
599   1   1   35.649   80.964   0
600   1   1   35.335   57.961   0
601   1   1   35.608   55.067   0
602   1   1   35.25   94.632   0
603   1   1   35.698   52.912   0
604   1   1   35.6   51.486   0
605   1   1   35.716   40.908   0
606   1   1   35.665   30.442   0
607   1   1   35.662   28.725   0
608   1   1   35.66   27.029   0
609   1   1   35.938   20.433   0
610   1   1   35.982   83.332   0
611   1   1   36.003   77.572   0
612   1   1   35.943   66.543   0
613   1   1   35.934   64.746   0
614   1   1   36.029   90.259   0
615   1   1   36.097   73.194   0
616   1   1   36.106   36.091   0
617   1   1   35.994   34.115   0
618   1   1   35.941   32.542   0
619   1   1   36.264   92.718   0
620   1   1   36.082   62.834   0
621   1   1   36.278   71.071   0
622   1   1   36.337   68.728   0
623   1   1   36.402   92.227   0
624   1   1   36.564   79.642   0
625   1   1   36.467   75.374   0
626   1   1   36.427   46.43   0
627   1   1   36.519   58.763   0
628   1   1   36.605   24.902   0
629   1   1   36.693   38.734   0
630   1   1   36.832   22.782   0
631   1   1   36.952   87.928   0
632   1   1   36.848   17.909   0
633   1   1   37.039   85.988   0
634   1   1   37.021   60.887   0
635   1   1   37.001   49.996   0
636   1   1   36.985   43.837   0
637   1   1   37.126   81.8   0
638   1   1   37.183   56.434   0
639   1   1   37.066   53.15   0
640   1   1   37.159   41.317   0
641   1   1   37.101   30.559   0
642   1   1   37.108   27.746   0
643   1   1   37.247   25.835   0
644   1   1   37.221   20.389   0
645   1   1   37.406   83.948   0
646   1   1   37.491   77.028   0
647   1   1   37.381   66.867   0
648   1   1   37.398   64.655   0
649   1   1   37.604   89.395   0
650   1   1   37.575   73.411   0
651   1   1   37.531   37.776   0
652   1   1   37.514   35.347   0
653   1   1   37.934   66.173   0
654   1   1   37.792   95.682   0
655   1   1   37.757   71.619   0
656   1   1   37.732   68.976   0
657   1   1   37.908   92.946   0
658   1   1   37.828   79.87   0
659   1   1   37.939   75.446   0
660   1   1   37.841   47.248   0
661   1   1   37.904   45.357   0
662   1   1   38.346   95.453   0
663   1   1   38.07   59.349   0
664   1   1   38.485   54.708   0
665   1   1   38.279   32.103   0
666   1   1   38.242   23.83   0
667   1   1   38.24   21.956   0
668   1   1   38.432   91.02   0
669   1   1   38.659   88.242   0
670   1   1   38.533   51.659   0
671   1   1   38.209   17.842   0
672   1   1   38.622   85.554   0
673   1   1   38.623   77.781   0
674   1   1   38.482   61.724   0
675   1   1   38.187   49.308   0
676   1   1   38.496   43.51   0
677   1   1   38.494   40.488   0
678   1   1   38.512   81.986   0
679   1   1   38.662   56.513   0
680   1   1   38.691   29.303   0
681   1   1   38.616   26.772   0
682   1   1   38.476   25.429   0
683   1   1   38.81   20.26   0
684   1   1   38.849   84.318   0
685   1   1   38.864   64.319   0
686   1   1   39.06   72.98   0
687   1   1   39.128   38.157   0
688   1   1   38.998   35.455   0
689   1   1   38.951   66.197   0
690   1   1   39.381   53.139   0
691   1   1   39.212   70.208   0
692   1   1   39.306   68.063   0
693   1   1   38.857   97.108   0
694   1   1   39.452   93.197   0
695   1   1   39.467   88.972   0
696   1   1   39.527   80.35   0
697   1   1   39.426   75.638   0
698   1   1   39.385   47.485   0
699   1   1   39.397   45.168   0
700   1   1   39.365   33.426   0
701   1   1   39.581   95.486   0
702   1   1   39.59   59.504   0
703   1   1   39.899   54.724   0
704   1   1   39.842   31.198   0
705   1   1   39.745   23.911   0
706   1   1   39.848   21.986   0
707   1   1   39.911   91.233   0
708   1   1   39.883   17.478   0
709   1   1   40.228   87.127   0
710   1   1   39.984   77.644   0
711   1   1   40.078   71.714   0
712   1   1   39.775   61.605   0
713   1   1   39.929   57.982   0
714   1   1   39.922   43.01   0
715   1   1   39.863   41.313   0
716   1   1   40.107   56.408   0
717   1   1   40.203   28.375   0
718   1   1   40.15   26.133   0
719   1   1   40.254   19.957   0
720   1   1   40.364   84.868   0
721   1   1   40.395   64.175   0
722   1   1   39.803   49.103   0
723   1   1   40.529   73.524   0
724   1   1   40.575   39.326   0
725   1   1   40.493   37.287   0
726   1   1   40.517   35.356   0
727   1   1   40.655   52.288   0
728   1   1   40.781   68.543   0
729   1   1   40.707   66.619   0
730   1   1   40.729   49.903   0
731   1   1   40.474   97.143   0
732   1   1   40.965   93.127   0
733   1   1   41.119   88.964   0
734   1   1   41.003   81.514   0
735   1   1   40.587   79.943   0
736   1   1   40.844   76.09   0
737   1   1   40.863   46.923   0
738   1   1   40.959   32.822   0
739   1   1   41.005   95.216   0
740   1   1   41.09   60.746   0
741   1   1   40.922   45.354   0
742   1   1   41.115   55.026   0
743   1   1   41.198   29.726   0
744   1   1   41.279   24.407   0
745   1   1   41.217   21.575   0
746   1   1   41.47   90.61   0
747   1   1   41.296   17.867   0
748   1   1   41.601   87.026   0
749   1   1   41.588   77.651   0
750   1   1   41.401   71.198   0
751   1   1   41.431   58.549   0
752   1   1   41.482   43.011   0
753   1   1   41.563   83.531   0
754   1   1   41.625   63.05   0
755   1   1   41.608   27.14   0
756   1   1   41.843   85.776   0
757   1   1   41.885   64.889   0
758   1   1   41.78   74.32   0
759   1   1   42.264   43.678   0
760   1   1   42.073   40.541   0
761   1   1   41.959   38.455   0
762   1   1   42.212   35.384   0
763   1   1   42.028   20.432   0
764   1   1   41.702   52.078   0
765   1   1   42.125   28.578   0
766   1   1   42.116   68.6   0
767   1   1   42.145   66.503   0
768   1   1   42.171   56.752   0
769   1   1   42.459   91.986   0
770   1   1   42.39   80.509   0
771   1   1   42.342   47.398   0
772   1   1   42.361   32.779   0
773   1   1   42.318   31.105   0
774   1   1   42.505   96.343   0
775   1   1   41.996   95.495   0
776   1   1   42.546   60.911   0
777   1   1   42.428   46.001   0
778   1   1   42.63   55.149   0
779   1   1   42.8   25.322   0
780   1   1   42.58   22.595   0
781   1   1   42.864   89.125   0
782   1   1   42.772   50.93   0
783   1   1   42.773   18.1   0
784   1   1   42.967   87.396   0
785   1   1   42.819   77.85   0
786   1   1   43.047   71.347   0
787   1   1   42.944   58.17   0
788   1   1   43.043   83.3   0
789   1   1   42.475   75.684   0
790   1   1   43.194   30.018   0
791   1   1   42.948   63.107   0
792   1   1   43.056   26.545   0
793   1   1   43.394   85.846   0
794   1   1   43.387   64.706   0
795   1   1   43.581   49.909   0
796   1   1   43.488   43.575   0
797   1   1   43.329   40.477   0
798   1   1   43.401   38.598   0
799   1   1   43.489   36.213   0
800   1   1   43.452   20.772   0
801   1   1   43.539   44.735   0
802   1   1   43.416   34.66   0
803   1   1   43.205   69.367   0
804   1   1   43.663   66.829   0
805   1   1   43.952   92.154   0
806   1   1   43.832   80.537   0
807   1   1   43.799   32.88   0
808   1   1   43.936   95.742   0
809   1   1   44.064   60.883   0
810   1   1   44.023   46.727   0
811   1   1   44.201   55.165   0
812   1   1   44.316   93.356   0
813   1   1   44.213   24.851   0
814   1   1   44.156   22.476   0
815   1   1   44.27   89.143   0
816   1   1   44.218   18.831   0
817   1   1   44.053   17.346   0
818   1   1   44.381   77.478   0
819   1   1   44.346   72.982   0
820   1   1   44.43   70.902   0
821   1   1   44.379   57.922   0
822   1   1   44.615   83.421   0
823   1   1   44.542   75.15   0
824   1   1   44.442   30.736   0
825   1   1   44.429   28.972   0
826   1   1   44.964   76.205   0
827   1   1   44.67   87.757   0
828   1   1   44.691   84.954   0
829   1   1   44.862   65.283   0
830   1   1   44.892   50.738   0
831   1   1   44.901   48.705   0
832   1   1   44.972   42.218   0
833   1   1   44.918   40.304   0
834   1   1   44.945   38.338   0
835   1   1   45.105   21.665   0
836   1   1   45.107   44.712   0
837   1   1   44.946   35.936   0
838   1   1   45.004   67.258   0
839   1   1   45.192   52.207   0
840   1   1   45.379   91.059   0
841   1   1   45.387   80.472   0
842   1   1   45.357   32.827   0
843   1   1   45.515   62.403   0
844   1   1   45.491   27.952   0
845   1   1   45.25   60.36   0
846   1   1   45.533   53.95   0
847   1   1   45.603   46.746   0
848   1   1   45.449   34.528   0
849   1   1   45.681   69.039   0
850   1   1   45.588   56.233   0
851   1   1   45.181   93.756   0
852   1   1   45.226   92.82   0
853   1   1   45.707   25.302   0
854   1   1   45.427   19.629   0
855   1   1   45.983   71.116   0
856   1   1   45.886   58.677   0
857   1   1   46.018   82.486   0
858   1   1   45.961   73.727   0
859   1   1   45.941   30.905   0
860   1   1   46.199   88.572   0
861   1   1   46.19   76.599   0
862   1   1   46.308   84.521   0
863   1   1   46.176   65.111   0
864   1   1   46.407   86.903   0
865   1   1   46.739   71.56   0
866   1   1   46.42   48.626   0
867   1   1   46.44   41.864   0
868   1   1   46.35   40.039   0
869   1   1   46.317   21.275   0
870   1   1   46.624   78.228   0
871   1   1   46.535   44.018   0
872   1   1   46.484   36.829   0
873   1   1   46.589   86.356   0
874   1   1   46.726   52.158   0
875   1   1   46.135   50.992   0
876   1   1   46.84   90.86   0
877   1   1   46.973   81.552   0
878   1   1   47.1   79.128   0
879   1   1   46.771   22.54   0
880   1   1   46.958   63.484   0
881   1   1   46.841   28.662   0
882   1   1   46.877   26.844   0
883   1   1   46.996   54.698   0
884   1   1   46.961   45.685   0
885   1   1   46.943   35.012   0
886   1   1   46.94   32.704   0
887   1   1   47.167   68.171   0
888   1   1   47.067   56.718   0