ITEM: TIMESTEP
0
ITEM: NUMBER OF ATOMS
301
ITEM: BOX BOUNDS pp pp pp
-1.0000000000000000e+03 1.0000000000000000e+03
-1.0000000000000000e+03 1.0000000000000000e+03
-1.0000000000000000e+03 1.0000000000000000e+03
ITEM: ATOMS id x y z ix iy iz
1 0.00000 0.00000 0.00000 0 0 0
2 0.00000 0.00000 1.00000 0 0 0
3 0.00000 -0.50000 1.86603 0 0 0
4 0.00000 0.00000 2.73205 0 0 0
5 0.00000 -0.50000 3.59808 0 0 0
6 0.00000 0.00000 4.46410 0 0 0
7 0.00000 -0.50000 5.33013 0 0 0
8 0.00000 0.00000 6.19615 0 0 0
9 0.00000 -0.50000 7.06218 0 0 0
10 0.00000 0.00000 7.92820 0 0 0
11 0.00000 -0.50000 8.79423 0 0 0
12 0.00000 0.00000 9.66025 0 0 0
13 0.00000 -0.50000 10.52628 0 0 0
14 0.00000 0.00000 11.39230 0 0 0
15 0.00000 -0.50000 12.25833 0 0 0
16 0.00000 0.00000 13.12436 0 0 0
17 0.00000 -0.50000 13.99038 0 0 0
18 0.00000 0.00000 14.85641 0 0 0
19 0.00000 -0.50000 15.72243 0 0 0
20 0.00000 0.00000 16.58846 0 0 0
21 0.00000 -0.50000 17.45448 0 0 0
22 0.00000 0.00000 18.32051 0 0 0
23 0.00000 -0.50000 19.18653 0 0 0
24 0.00000 0.00000 20.05256 0 0 0
25 0.00000 -0.50000 20.91858 0 0 0
26 0.00000 0.00000 21.78461 0 0 0
27 0.00000 -0.50000 22.65064 0 0 0
28 0.00000 0.00000 23.51666 0 0 0
29 0.00000 -0.50000 24.38269 0 0 0
30 0.00000 0.00000 25.24871 0 0 0
31 0.00000 -0.50000 26.11474 0 0 0
32 0.00000 0.00000 26.98076 0 0 0
33 0.00000 -0.50000 27.84679 0 0 0
34 0.00000 0.00000 28.71281 0 0 0
35 0.00000 -0.50000 29.57884 0 0 0
36 0.00000 0.00000 30.44486 0 0 0
37 0.00000 -0.50000 31.31089 0 0 0
38 0.00000 0.00000 32.17691 0 0 0
39 0.00000 -0.50000 33.04294 0 0 0
40 0.00000 0.00000 33.90897 0 0 0
41 0.00000 -0.50000 34.77499 0 0 0
42 0.00000 0.00000 35.64102 0 0 0
43 0.00000 -0.50000 36.50704 0 0 0
44 0.00000 0.00000 37.37307 0 0 0
45 0.00000 -0.50000 38.23909 0 0 0
46 0.00000 0.00000 39.10512 0 0 0
47 0.00000 -0.50000 39.97114 0 0 0
48 0.00000 0.00000 40.83717 0 0 0
49 0.00000 -0.50000 41.70319 0 0 0
50 0.00000 0.00000 42.56922 0 0 0
51 0.00000 -0.50000 43.43524 0 0 0
52 0.00000 0.00000 44.30127 0 0 0
53 0.00000 -0.50000 45.16730 0 0 0
54 0.00000 0.00000 46.03332 0 0 0
55 0.00000 -0.50000 46.89935 0 0 0
56 0.00000 0.00000 47.76537 0 0 0
57 0.00000 -0.50000 48.63140 0 0 0
58 0.00000 0.00000 49.49742 0 0 0
59 0.00000 -0.50000 50.36345 0 0 0
60 0.00000 0.00000 51.22947 0 0 0
61 0.00000 -0.50000 52.09550 0 0 0
62 -0.84735 -0.90490 52.43908 0 0 0
63 -1.69471 -1.42734 52.53419 0 0 0
64 -2.54206 -1.60620 53.03419 0 0 0
65 -3.38942 -2.12864 53.12929 0 0 0
66 -4.23677 -2.30750 53.62929 0 0 0
67 -5.08413 -2.82994 53.72439 0 0 0
68 -5.93148 -3.00880 54.22439 0 0 0
69 -6.77884 -3.53124 54.31950 0 0 0
70 -7.62619 -3.71010 54.81950 0 0 0
71 -8.47354 -4.23254 54.91460 0 0 0
72 -9.32090 -4.41140 55.41460 0 0 0
73 -10.16825 -4.93384 55.50971 0 0 0
74 -11.01561 -5.11270 56.00971 0 0 0
75 -11.86296 -5.63514 56.10481 0 0 0
76 -12.71032 -5.81400 56.60481 0 0 0
77 -13.55767 -6.33644 56.69991 0 0 0
78 -14.40503 -6.51530 57.19991 0 0 0
79 -15.25238 -7.03774 57.29502 0 0 0
80 -16.09974 -7.21660 57.79502 0 0 0
81 -16.94709 -7.73904 57.89012 0 0 0
82 -17.79444 -7.91790 58.39012 0 0 0
83 -18.64180 -8.44034 58.48523 0 0 0
84 -19.48915 -8.61920 58.98523 0 0 0
85 -20.33651 -9.14164 59.08033 0 0 0
86 -21.18386 -9.32050 59.58033 0 0 0
87 -22.03122 -9.84294 59.67543 0 0 0
88 -22.87857 -10.02180 60.17543 0 0 0
89 -23.72593 -10.54425 60.27054 0 0 0
90 -24.57328 -10.72310 60.77054 0 0 0
91 -25.42063 -11.24555 60.86564 0 0 0
92 -26.26799 -11.42440 61.36564 0 0 0
93 -27.11534 -11.94685 61.46075 0 0 0
94 -27.96270 -12.12571 61.96075 0 0 0
95 -28.81005 -12.64815 62.05585 0 0 0
96 -29.65741 -12.82701 62.55585 0 0 0
97 -30.50476 -13.34945 62.65095 0 0 0
98 -31.35212 -13.52831 63.15095 0 0 0
99 -32.19947 -14.05075 63.24606 0 0 0
100 -33.04682 -14.22961 63.74606 0 0 0
101 -33.89418 -14.75205 63.84116 0 0 0
102 -34.74153 -14.93091 64.34116 0 0 0
103 -35.58889 -15.45335 64.43626 0 0 0
104 -36.43624 -15.63221 64.93626 0 0 0
105 -37.28360 -16.15465 65.03137 0 0 0
106 -38.13095 -16.33351 65.53137 0 0 0
107 -38.97831 -16.85595 65.62647 0 0 0
108 -39.82566 -17.03481 66.12647 0 0 0
109 -40.67301 -17.55725 66.22158 0 0 0
110 -41.52037 -17.73611 66.72158 0 0 0
111 -42.36772 -18.25855 66.81668 0 0 0
112 -43.21508 -18.43741 67.31668 0 0 0
113 -44.06243 -18.95985 67.41178 0 0 0
114 -44.90979 -19.13871 67.91178 0 0 0
115 -45.75714 -19.66115 68.00689 0 0 0
116 -46.60450 -19.84001 68.50689 0 0 0
117 -47.45185 -20.36245 68.60199 0 0 0
118 -48.29921 -20.54131 69.10199 0 0 0
119 -49.14656 -21.06375 69.19710 0 0 0
120 -49.99391 -21.24261 69.69710 0 0 0
121 -50.84127 -21.76505 69.79220 0 0 0
122 0.84735 -0.59510 52.61794 0 0 0
123 1.69471 -0.93869 53.02284 0 0 0
124 2.54206 -0.75983 53.52284 0 0 0
125 3.38942 -1.10341 53.92773 0 0 0
126 4.23677 -0.92455 54.42773 0 0 0
127 5.08413 -1.26814 54.83263 0 0 0
128 5.93148 -1.08928 55.33263 0 0 0
129 6.77884 -1.43286 55.73753 0 0 0
130 7.62619 -1.25400 56.23753 0 0 0
131 8.47354 -1.59759 56.64242 0 0 0
132 9.32090 -1.41873 57.14242 0 0 0
133 10.16825 -1.76231 57.54732 0 0 0
134 11.01561 -1.58345 58.04732 0 0 0
135 11.86296 -1.92704 58.45221 0 0 0
136 12.71032 -1.74818 58.95221 0 0 0
137 13.55767 -2.09176 59.35711 0 0 0
138 14.40503 -1.91290 59.85711 0 0 0
139 15.25238 -2.25649 60.26201 0 0 0
140 16.09974 -2.07763 60.76201 0 0 0
141 16.94709 -2.42121 61.16690 0 0 0
142 17.79444 -2.24235 61.66690 0 0 0
143 18.64180 -2.58594 62.07180 0 0 0
144 19.48915 -2.40708 62.57180 0 0 0
145 20.33651 -2.75066 62.97669 0 0 0
146 21.18386 -2.57180 63.47669 0 0 0
147 22.03122 -2.91539 63.88159 0 0 0
148 22.87857 -2.73653 64.38159 0 0 0
149 23.72593 -3.08011 64.78649 0 0 0
150 24.57328 -2.90125 65.28649 0 0 0
151 25.42063 -3.24484 65.69138 0 0 0
152 26.26799 -3.06598 66.19138 0 0 0
153 27.11534 -3.40956 66.59628 0 0 0
154 27.96270 -3.23070 67.09628 0 0 0
155 28.81005 -3.57428 67.50117 0 0 0
156 29.65741 -3.39543 68.00117 0 0 0
157 30.50476 -3.73901 68.40607 0 0 0
158 31.35212 -3.56015 68.90607 0 0 0
159 32.19947 -3.90373 69.31097 0 0 0
160 33.04682 -3.72488 69.81097 0 0 0
161 33.89418 -4.06846 70.21586 0 0 0
162 34.74153 -3.88960 70.71586 0 0 0
163 35.58889 -4.23318 71.12076 0 0 0
164 36.43624 -4.05433 71.62076 0 0 0
165 37.28360 -4.39791 72.02565 0 0 0
166 38.13095 -4.21905 72.52565 0 0 0
167 38.97831 -4.56263 72.93055 0 0 0
168 39.82566 -4.38378 73.43055 0 0 0
169 40.67301 -4.72736 73.83545 0 0 0
170 41.52037 -4.54850 74.33545 0 0 0
171 42.36772 -4.89208 74.74034 0 0 0
172 43.21508 -4.71322 75.24034 0 0 0
173 44.06243 -5.05681 75.64524 0 0 0
174 44.90979 -4.87795 76.14524 0 0 0
175 45.75714 -5.22153 76.55013 0 0 0
176 46.60450 -5.04267 77.05013 0 0 0
177 47.45185 -5.38626 77.45503 0 0 0
178 48.29921 -5.20740 77.95503 0 0 0
179 49.14656 -5.55098 78.35993 0 0 0
180 49.99391 -5.37212 78.85993 0 0 0
181 50.84127 -5.71571 79.26482 0 0 0
182 -0.20653 0.34735 52.58472 0 0 0
183 -0.41306 0.83657 53.43207 0 0 0
184 -0.61958 1.81502 53.43207 0 0 0
185 -0.82611 2.30424 54.27943 0 0 0
186 -1.03264 3.28268 54.27943 0 0 0
187 -1.23917 3.77190 55.12678 0 0 0
188 -1.44570 4.75034 55.12678 0 0 0
189 -1.65222 5.23956 55.97414 0 0 0
190 -1.85875 6.21800 55.97414 0 0 0
191 -2.06528 6.70722 56.82149 0 0 0
192 -2.27181 7.68566 56.82149 0 0 0
193 -2.47834 8.17488 57.66885 0 0 0
194 -2.68487 9.15332 57.66885 0 0 0
195 -2.89139 9.64254 58.51620 0 0 0
196 -3.09792 10.62098 58.51620 0 0 0
197 -3.30445 11.11020 59.36355 0 0 0
198 -3.51098 12.08864 59.36355 0 0 0
199 -3.71751 12.57786 60.21091 0 0 0
200 -3.92403 13.55630 60.21091 0 0 0
201 -4.13056 14.04552 61.05826 0 0 0
202 -4.33709 15.02396 61.05826 0 0 0
203 -4.54362 15.51318 61.90562 0 0 0
204 -4.75015 16.49163 61.90562 0 0 0
205 -4.95667 16.98085 62.75297 0 0 0
206 -5.16320 17.95929 62.75297 0 0 0
207 -5.36973 18.44851 63.60033 0 0 0
208 -5.57626 19.42695 63.60033 0 0 0
209 -5.78279 19.91617 64.44768 0 0 0
210 -5.98931 20.89461 64.44768 0 0 0
211 -6.19584 21.38383 65.29504 0 0 0
212 -6.40237 22.36227 65.29504 0 0 0
213 -6.60890 22.85149 66.14239 0 0 0
214 -6.81543 23.82993 66.14239 0 0 0
215 -7.02196 24.31915 66.98975 0 0 0
216 -7.22848 25.29759 66.98975 0 0 0
217 -7.43501 25.78681 67.83710 0 0 0
218 -7.64154 26.76525 67.83710 0 0 0
219 -7.84807 27.25447 68.68445 0 0 0
220 -8.05460 28.23291 68.68445 0 0 0
221 -8.26112 28.72213 69.53181 0 0 0
222 -8.46765 29.70057 69.53181 0 0 0
223 -8.67418 30.18979 70.37916 0 0 0
224 -8.88071 31.16824 70.37916 0 0 0
225 -9.08724 31.65746 71.22652 0 0 0
226 -9.29376 32.63590 71.22652 0 0 0
227 -9.50029 33.12512 72.07387 0 0 0
228 -9.70682 34.10356 72.07387 0 0 0
229 -9.91335 34.59278 72.92123 0 0 0
230 -10.11988 35.57122 72.92123 0 0 0
231 -10.32640 36.06044 73.76858 0 0 0
232 -10.53293 37.03888 73.76858 0 0 0
233 -10.73946 37.52810 74.61594 0 0 0
234 -10.94599 38.50654 74.61594 0 0 0
235 -11.15252 38.99576 75.46329 0 0 0
236 -11.35905 39.97420 75.46329 0 0 0
237 -11.56557 40.46342 76.31064 0 0 0
238 -11.77210 41.44186 76.31064 0 0 0
239 -11.97863 41.93108 77.15800 0 0 0
240 -12.18516 42.90952 77.15800 0 0 0
241 -12.39169 43.39874 78.00535 0 0 0
242 0.20653 -1.34735 51.60628 0 0 0
243 0.41306 -1.83657 50.75892 0 0 0
244 0.61958 -2.81502 50.75892 0 0 0
245 0.82611 -3.30424 49.91157 0 0 0
246 1.03264 -4.28268 49.91157 0 0 0
247 1.23917 -4.77190 49.06422 0 0 0
248 1.44570 -5.75034 49.06422 0 0 0
249 1.65222 -6.23956 48.21686 0 0 0
250 1.85875 -7.21800 48.21686 0 0 0
251 2.06528 -7.70722 47.36951 0 0 0
252 2.27181 -8.68566 47.36951 0 0 0
253 2.47834 -9.17488 46.52215 0 0 0
254 2.68487 -10.15332 46.52215 0 0 0
255 2.89139 -10.64254 45.67480 0 0 0
256 3.09792 -11.62098 45.67480 0 0 0
257 3.30445 -12.11020 44.82744 0 0 0
258 3.51098 -13.08864 44.82744 0 0 0
259 3.71751 -13.57786 43.98009 0 0 0
260 3.92403 -14.55630 43.98009 0 0 0
261 4.13056 -15.04552 43.13273 0 0 0
262 4.33709 -16.02396 43.13273 0 0 0
263 4.54362 -16.51318 42.28538 0 0 0
264 4.75015 -17.49163 42.28538 0 0 0
265 4.95667 -17.98085 41.43802 0 0 0
266 5.16320 -18.95929 41.43802 0 0 0
267 5.36973 -19.44851 40.59067 0 0 0
268 5.57626 -20.42695 40.59067 0 0 0
269 5.78279 -20.91617 39.74332 0 0 0
270 5.98931 -21.89461 39.74332 0 0 0
271 6.19584 -22.38383 38.89596 0 0 0
272 6.40237 -23.36227 38.89596 0 0 0
273 6.60890 -23.85149 38.04861 0 0 0
274 6.81543 -24.82993 38.04861 0 0 0
275 7.02196 -25.31915 37.20125 0 0 0
276 7.22848 -26.29759 37.20125 0 0 0
277 7.43501 -26.78681 36.35390 0 0 0
278 7.64154 -27.76525 36.35390 0 0 0
279 7.84807 -28.25447 35.50654 0 0 0
280 8.05460 -29.23291 35.50654 0 0 0
281 8.26112 -29.72213 34.65919 0 0 0
282 8.46765 -30.70057 34.65919 0 0 0
283 8.67418 -31.18979 33.81183 0 0 0
284 8.88071 -32.16824 33.81183 0 0 0
285 9.08724 -32.65746 32.96448 0 0 0
286 9.29376 -33.63590 32.96448 0 0 0
287 9.50029 -34.12512 32.11713 0 0 0
288 9.70682 -35.10356 32.11713 0 0 0
289 9.91335 -35.59278 31.26977 0 0 0
290 10.11988 -36.57122 31.26977 0 0 0
291 10.32640 -37.06044 30.42242 0 0 0
292 10.53293 -38.03888 30.42242 0 0 0
293 10.73946 -38.52810 29.57506 0 0 0
294 10.94599 -39.50654 29.57506 0 0 0
295 11.15252 -39.99576 28.72771 0 0 0
296 11.35905 -40.97420 28.72771 0 0 0
297 11.56557 -41.46342 27.88035 0 0 0
298 11.77210 -42.44186 27.88035 0 0 0
299 11.97863 -42.93108 27.03300 0 0 0
300 12.18516 -43.90952 27.03300 0 0 0
301 12.39169 -44.39874 26.18564 0 0 0
ITEM: TIMESTEP
1000
ITEM: NUMBER OF ATOMS
301
ITEM: BOX BOUNDS pp pp pp
-1.0000000000000000e+03 1.0000000000000000e+03
-1.0000000000000000e+03 1.0000000000000000e+03
-1.0000000000000000e+03 1.0000000000000000e+03
ITEM: ATOMS id x y z ix iy iz
1 1.04175 -0.08899 5.11301 0 0 0
2 1.16569 0.66873 5.70709 0 0 0
3 0.92169 1.15944 6.55772 0 0 0
4 0.06080 0.77172 6.61631 0 0 0
5 -0.78700 0.33239 6.85991 0 0 0
6 -0.79161 -0.26321 7.61932 0 0 0
7 -0.73845 -0.23025 8.56338 0 0 0
8 0.18990 -0.18362 8.94205 0 0 0
9 1.14909 -0.47428 9.09273 0 0 0
10 0.79817 -1.38343 9.41411 0 0 0
11 0.19555 -1.75828 10.09654 0 0 0
12 -0.39159 -1.50404 10.85356 0 0 0
13 -0.36672 -1.37648 11.87827 0 0 0
14 -0.74137 -1.02775 12.70521 0 0 0
15 -0.83089 -1.11093 13.71386 0 0 0
16 -1.46927 -0.95927 14.52891 0 0 0
17 -0.87901 -0.75761 15.28674 0 0 0
18 -0.62265 -0.94394 16.24182 0 0 0
19 -0.67446 -1.51133 17.20194 0 0 0
20 -0.28461 -1.37226 18.16822 0 0 0
21 -0.11610 -1.32547 19.13543 0 0 0
22 -0.36141 -0.81687 19.88473 0 0 0
23 0.13044 -1.26331 20.68227 0 0 0
24 -0.45354 -1.29308 21.48162 0 0 0
25 0.05667 -1.50717 22.34745 0 0 0
26 -0.45252 -1.06727 23.13014 0 0 0
27 -0.70233 -0.55085 23.92923 0 0 0
28 -1.35789 -0.24314 24.69691 0 0 0
29 -1.23788 0.65344 25.10918 0 0 0
30 -1.53786 0.75521 26.04278 0 0 0
31 -2.14728 0.44072 26.78371 0 0 0
32 -1.89315 0.89482 27.68267 0 0 0
33 -1.67744 1.14328 28.71714 0 0 0
34 -1.83698 0.55482 29.46954 0 0 0
35 -1.64553 0.19972 30.34294 0 0 0
36 -1.71038 -0.33961 31.20959 0 0 0
37 -2.00886 -0.91266 31.96828 0 0 0
38 -2.36539 -1.05254 32.88816 0 0 0
39 -2.46323 -1.38577 33.91287 0 0 0
40 -2.51436 -1.26212 34.85265 0 0 0
41 -2.34743 -1.47331 35.76202 0 0 0
42 -1.91759 -1.57612 36.65548 0 0 0
43 -1.43313 -1.46511 37.57535 0 0 0
44 -0.88852 -1.37053 38.49521 0 0 0
45 -1.05162 -1.91799 39.28589 0 0 0
46 -0.67981 -2.23033 40.25300 0 0 0
47 -0.81744 -2.33280 41.27532 0 0 0
48 -1.43752 -2.15171 41.99341 0 0 0
49 -1.61096 -2.79036 42.71282 0 0 0
50 -1.03295 -2.61724 43.40375 0 0 0
51 -0.87746 -2.55991 44.50459 0 0 0
52 -0.53259 -2.07883 45.28082 0 0 0
53 -0.79276 -1.54448 46.08639 0 0 0
54 -0.70989 -1.00890 46.90935 0 0 0
55 -0.55747 -0.51501 47.73902 0 0 0
56 -0.08530 -0.20608 48.58049 0 0 0
57 0.06071 -0.07224 49.48616 0 0 0
58 0.79320 -0.02117 50.15060 0 0 0
59 0.61666 -0.17901 51.08565 0 0 0
60 0.10647 -0.84394 51.69120 0 0 0
61 -0.50537 -1.15544 52.47143 0 0 0
62 -1.38533 -1.30304 52.07610 0 0 0
63 -2.23323 -1.69494 52.34850 0 0 0
64 -2.77852 -2.14301 53.16997 0 0 0
65 -3.43150 -2.16120 53.91474 0 0 0
66 -4.47043 -2.39120 54.16752 0 0 0
67 -5.20241 -2.66989 54.81941 0 0 0
68 -5.94961 -3.16387 55.32433 0 0 0
69 -6.76560 -3.84459 55.41426 0 0 0
70 -7.73763 -4.00166 55.43752 0 0 0
71 -8.49940 -4.26507 55.97271 0 0 0
72 -9.27146 -4.94205 55.97096 0 0 0
73 -9.86527 -5.36867 56.67356 0 0 0
74 -10.51898 -6.13813 56.63198 0 0 0
75 -11.43477 -6.17209 57.10459 0 0 0
76 -12.35449 -6.51678 57.14400 0 0 0
77 -13.20383 -6.91554 56.85526 0 0 0
78 -14.20197 -7.03582 56.75508 0 0 0
79 -15.22633 -7.00102 56.63330 0 0 0
80 -15.83065 -7.30427 57.35504 0 0 0
81 -16.78871 -7.64259 57.48518 0 0 0
82 -17.77411 -7.56020 57.67992 0 0 0
83 -18.27581 -8.25208 58.23671 0 0 0
84 -19.20326 -8.65148 58.61163 0 0 0
85 -20.01234 -9.15072 58.81001 0 0 0
86 -20.78998 -9.70427 58.90957 0 0 0
87 -21.71090 -10.10466 58.85107 0 0 0
88 -22.43542 -10.68187 59.08496 0 0 0
89 -23.20516 -11.31558 59.05530 0 0 0
90 -23.65959 -12.13393 59.59928 0 0 0
91 -23.99956 -12.41118 60.43795 0 0 0
92 -24.97151 -12.56420 60.59387 0 0 0
93 -25.81099 -13.09806 60.87463 0 0 0
94 -26.79627 -13.11704 60.72134 0 0 0
95 -27.13477 -13.77052 61.37082 0 0 0
96 -27.85860 -14.21808 61.92461 0 0 0
97 -28.71383 -14.56658 62.34923 0 0 0
98 -29.56545 -14.67691 62.81927 0 0 0
99 -30.45894 -14.71134 63.28670 0 0 0
100 -31.44029 -14.77350 63.55557 0 0 0
101 -32.33173 -14.52960 63.91511 0 0 0
102 -33.30162 -14.75472 63.65661 0 0 0
103 -33.93258 -14.57586 64.38358 0 0 0
104 -34.79220 -14.25041 64.60493 0 0 0
105 -35.67906 -14.32256 64.91166 0 0 0
106 -36.66745 -14.32602 64.89754 0 0 0
107 -37.32672 -14.57207 65.57265 0 0 0
108 -37.98140 -15.26815 66.02162 0 0 0
109 -38.87362 -15.73047 65.95368 0 0 0
110 -39.63873 -16.08367 66.39267 0 0 0
111 -40.15382 -16.78557 66.85213 0 0 0
112 -40.18334 -17.73380 66.73160 0 0 0
113 -41.16129 -17.57349 66.58572 0 0 0
114 -42.00386 -17.77277 66.96798 0 0 0
115 -43.00511 -17.84936 66.95640 0 0 0
116 -43.31855 -17.02691 67.66302 0 0 0
117 -43.62945 -17.47279 68.50682 0 0 0
118 -43.56378 -18.05489 69.36955 0 0 0
119 -44.30170 -18.74107 69.23988 0 0 0
120 -45.30403 -18.73355 69.10764 0 0 0
121 -46.05573 -18.44027 68.57233 0 0 0
122 0.41923 -1.40792 52.82902 0 0 0
123 1.16515 -1.93775 53.24235 0 0 0
124 1.98654 -1.81973 53.78413 0 0 0
125 2.30181 -1.62542 54.76530 0 0 0
126 3.35121 -1.64441 54.88221 0 0 0
127 4.14976 -1.57691 55.46628 0 0 0
128 5.04509 -1.57816 56.06019 0 0 0
129 5.80444 -1.78023 56.71261 0 0 0
130 6.69208 -1.36610 56.48741 0 0 0
131 7.47626 -1.72969 56.97807 0 0 0
132 8.35875 -1.97568 57.38851 0 0 0
133 9.20033 -2.23537 57.75009 0 0 0
134 9.90568 -1.78498 58.29909 0 0 0
135 10.74722 -1.50969 58.87125 0 0 0
136 11.72250 -1.79175 59.11493 0 0 0
137 12.66853 -2.05792 59.13789 0 0 0
138 13.62459 -1.90273 59.27906 0 0 0
139 14.33642 -1.64321 59.88440 0 0 0
140 15.00411 -1.50833 60.58413 0 0 0
141 15.90452 -1.36694 60.94154 0 0 0
142 16.45320 -1.14114 61.73682 0 0 0
143 17.32164 -1.17049 62.27690 0 0 0
144 17.93056 -0.98177 63.02664 0 0 0
145 18.68051 -1.59513 63.38640 0 0 0
146 19.65318 -1.74500 63.62904 0 0 0
147 20.71214 -2.03966 63.73518 0 0 0
148 21.73563 -1.91698 63.95655 0 0 0
149 22.64382 -1.67363 64.35403 0 0 0
150 23.52462 -1.72004 64.80577 0 0 0
151 24.42830 -1.77844 64.92065 0 0 0
152 25.28873 -1.81144 65.42682 0 0 0
153 26.15319 -1.66690 66.03501 0 0 0
154 26.70548 -1.06458 66.60615 0 0 0
155 26.70092 -0.83580 67.56675 0 0 0
156 27.84756 -0.83590 67.81315 0 0 0
157 28.76403 -1.24478 67.98441 0 0 0
158 29.49540 -1.95945 68.22996 0 0 0
159 30.41025 -2.39254 68.20847 0 0 0
160 31.15910 -2.91059 68.77174 0 0 0
161 32.00077 -2.37272 68.96971 0 0 0
162 32.41881 -2.54863 69.87885 0 0 0
163 33.15988 -3.05893 70.10586 0 0 0
164 34.06129 -3.07773 70.75412 0 0 0
165 34.96019 -2.69715 70.91202 0 0 0
166 35.77605 -2.18480 71.13970 0 0 0
167 36.71443 -2.38302 71.19298 0 0 0
168 37.51145 -2.95276 71.21887 0 0 0
169 38.35572 -2.95698 71.81456 0 0 0
170 39.10135 -3.57907 71.75057 0 0 0
171 39.93950 -3.29532 72.29376 0 0 0
172 40.61139 -2.91424 72.95042 0 0 0
173 41.44307 -2.48219 72.92143 0 0 0
174 41.85614 -3.19779 73.57617 0 0 0
175 42.10788 -4.18126 73.80504 0 0 0
176 42.52923 -4.31167 74.63292 0 0 0
177 43.33974 -3.77980 75.02494 0 0 0
178 44.30915 -4.05531 74.98380 0 0 0
179 44.99865 -4.22585 75.65468 0 0 0
180 44.92931 -4.49210 76.66377 0 0 0
181 44.91665 -5.46610 76.90263 0 0 0
182 -0.67570 -0.17880 52.34549 0 0 0
183 -0.72619 0.73163 52.66594 0 0 0
184 -0.99979 1.69286 52.83155 0 0 0
185 -0.98075 2.56941 53.18572 0 0 0
186 -0.82355 3.50735 53.73789 0 0 0
187 -1.31714 3.96496 54.46773 0 0 0
188 -1.12406 4.39128 55.30942 0 0 0
189 -1.40807 5.31509 55.71016 0 0 0
190 -0.87995 6.07279 55.71159 0 0 0
191 -1.24641 6.72831 56.35671 0 0 0
192 -1.46899 7.63838 56.53390 0 0 0
193 -1.40921 8.40646 57.04610 0 0 0
194 -1.93502 9.24981 57.14915 0 0 0
195 -2.09248 10.19073 57.46948 0 0 0
196 -2.44719 11.03341 57.92135 0 0 0
197 -2.45415 11.90687 58.35630 0 0 0
198 -2.93939 12.54469 58.96145 0 0 0
199 -3.80584 13.07466 59.03108 0 0 0
200 -3.95200 13.95871 59.51259 0 0 0
201 -3.70080 14.51316 60.24048 0 0 0
202 -3.60910 15.39358 60.58336 0 0 0
203 -3.74955 15.93520 61.36030 0 0 0
204 -3.82838 16.82187 61.71945 0 0 0
205 -3.81296 17.15974 62.65081 0 0 0
206 -3.98548 17.80516 63.39842 0 0 0
207 -4.48522 18.47743 63.95116 0 0 0
208 -4.63378 19.34169 63.44558 0 0 0
209 -4.23025 20.23675 63.54136 0 0 0
210 -4.29830 20.63118 64.42221 0 0 0
211 -4.79339 21.39064 64.62177 0 0 0
212 -5.63071 21.61711 65.17518 0 0 0
213 -6.18781 22.30849 65.60028 0 0 0
214 -6.28896 23.25382 65.51088 0 0 0
215 -6.74832 23.97505 65.96678 0 0 0
216 -6.80595 24.73861 66.49656 0 0 0
217 -6.79788 25.49628 67.18416 0 0 0
218 -7.36859 26.10937 67.64507 0 0 0
219 -7.19291 26.99699 68.03202 0 0 0
220 -6.87664 27.41368 68.84150 0 0 0
221 -6.61720 28.05317 69.59176 0 0 0
222 -7.01609 28.72158 68.93986 0 0 0
223 -7.36881 29.12506 69.72768 0 0 0
224 -7.92034 29.57634 70.47020 0 0 0
225 -8.41730 30.20740 71.02430 0 0 0
226 -8.97108 31.02342 70.63171 0 0 0
227 -9.26953 31.80186 71.13077 0 0 0
228 -10.14514 32.24430 71.50713 0 0 0
229 -11.00717 32.71487 71.63763 0 0 0
230 -10.87397 33.60766 71.34087 0 0 0
231 -11.53018 34.14171 71.77059 0 0 0
232 -11.72620 35.07258 71.86175 0 0 0
233 -11.92277 35.92522 72.30230 0 0 0
234 -12.16300 35.93116 73.32622 0 0 0
235 -12.11783 36.85603 73.83322 0 0 0
236 -12.11039 37.79457 74.08517 0 0 0
237 -11.53228 38.24242 74.73358 0 0 0
238 -11.13004 39.21609 74.98209 0 0 0
239 -11.05593 39.09550 75.91733 0 0 0
240 -11.72701 38.99952 76.59772 0 0 0
241 -12.00733 38.62866 77.44215 0 0 0
242 -0.03752 -2.03620 52.28067 0 0 0
243 0.04095 -2.75562 51.66293 0 0 0
244 0.20195 -3.72822 51.29835 0 0 0
245 0.99009 -4.20521 51.00842 0 0 0
246 0.93799 -4.91881 50.29671 0 0 0
247 1.30066 -5.67215 49.65773 0 0 0
248 1.07006 -6.60743 49.57142 0 0 0
249 0.77435 -7.46053 49.13041 0 0 0
250 0.94723 -8.39117 48.65740 0 0 0
251 1.26060 -8.99263 47.92900 0 0 0
252 2.11485 -9.02805 47.30807 0 0 0
253 2.33002 -9.58256 46.44246 0 0 0
254 2.38343 -10.53349 46.34984 0 0 0
255 2.63855 -11.27913 45.80748 0 0 0
256 3.35220 -11.81811 45.38702 0 0 0
257 4.08926 -12.43650 44.95927 0 0 0
258 4.05711 -13.43473 44.63940 0 0 0
259 4.44649 -14.25499 44.31010 0 0 0
260 4.65766 -14.81388 43.50124 0 0 0
261 5.02100 -15.13081 42.69591 0 0 0
262 4.74727 -15.65145 41.93466 0 0 0
263 5.22430 -15.88838 41.08676 0 0 0
264 5.53126 -16.14196 40.18431 0 0 0
265 6.08976 -16.86124 39.92298 0 0 0
266 6.35038 -17.28179 39.03852 0 0 0
267 7.12219 -17.78648 39.35702 0 0 0
268 6.81857 -18.75991 39.06298 0 0 0
269 7.32214 -19.59528 38.76393 0 0 0
270 7.18848 -20.31153 38.12646 0 0 0
271 7.26136 -21.25741 38.14090 0 0 0
272 7.23038 -22.18607 37.83865 0 0 0
273 6.63269 -22.85335 37.39575 0 0 0
274 6.37475 -23.76813 37.10384 0 0 0
275 6.11039 -24.67034 37.00845 0 0 0
276 6.46293 -25.22188 36.26008 0 0 0
277 6.63227 -26.20004 36.37979 0 0 0
278 7.38521 -26.74988 35.92979 0 0 0
279 7.21919 -27.58538 36.43728 0 0 0
280 7.96728 -28.10212 36.08813 0 0 0
281 8.01212 -28.71485 35.30996 0 0 0
282 8.18277 -29.56619 34.78462 0 0 0
283 7.92062 -30.48901 34.69729 0 0 0
284 8.46889 -30.93436 34.07807 0 0 0
285 8.98501 -31.74768 33.94575 0 0 0
286 9.61531 -32.34822 33.51018 0 0 0
287 9.26831 -33.25275 33.26697 0 0 0
288 9.09566 -33.69928 32.33925 0 0 0
289 8.63918 -34.46985 31.85266 0 0 0
290 8.24005 -35.41533 31.85380 0 0 0
291 8.08936 -36.39085 31.53104 0 0 0
292 7.94487 -37.15287 30.95407 0 0 0
293 8.69307 -37.49724 31.40965 0 0 0
294 9.54632 -37.44724 30.82070 0 0 0
295 10.45141 -37.71423 30.48801 0 0 0
296 10.35439 -38.47362 29.83667 0 0 0
297 10.16037 -39.33997 29.39685 0 0 0
298 10.13595 -39.91789 28.61646 0 0 0
299 9.40811 -40.62871 28.45683 0 0 0
300 10.00585 -41.02736 27.77349 0 0 0
301 9.86081 -41.87550 27.28063 0 0 0
ITEM: TIMESTEP
2000
ITEM: NUMBER OF ATOMS
301
ITEM: BOX BOUNDS pp pp pp
-1.0000000000000000e+03 1.0000000000000000e+03
-1.0000000000000000e+03 1.0000000000000000e+03
-1.0000000000000000e+03 1.0000000000000000e+03
ITEM: ATOMS id x y z ix iy iz
1 -1.95675 2.20402 6.85329 0 0 0
2 -0.99192 2.36133 6.97756 0 0 0
3 -0.54734 2.29415 7.83203 0 0 0
4 0.34452 2.01094 7.90565 0 0 0
5 0.43837 1.74715 8.82550 0 0 0
6 1.24451 1.80147 9.46598 0 0 0
7 1.19510 1.95517 10.56067 0 0 0
8 1.48054 1.08949 10.88622 0 0 0
9 1.10742 0.53417 11.60961 0 0 0
10 1.47365 0.37861 12.52627 0 0 0
11 0.89908 0.43467 13.32236 0 0 0
12 0.25731 0.12606 13.97646 0 0 0
13 0.11795 -0.79366 14.38325 0 0 0
14 0.23995 -1.20164 15.26396 0 0 0
15 0.61195 -0.69697 15.98103 0 0 0
16 0.48715 0.03686 16.51038 0 0 0
17 0.76512 -0.01459 17.36879 0 0 0
18 1.38044 -0.37896 18.05275 0 0 0
19 1.31635 0.21643 18.88394 0 0 0
20 0.87633 -0.35635 19.59320 0 0 0
21 0.18761 -0.63294 20.19305 0 0 0
22 -0.19501 -1.22556 20.87140 0 0 0
23 -0.51183 -1.44547 21.76674 0 0 0
24 0.02568 -1.93954 22.39380 0 0 0
25 0.01932 -1.96423 23.38704 0 0 0
26 -0.29038 -2.60105 24.10339 0 0 0
27 -0.66137 -2.51881 25.05735 0 0 0
28 -1.36961 -2.39322 25.83476 0 0 0
29 -1.52848 -2.59309 26.75938 0 0 0
30 -1.83782 -2.55437 27.60672 0 0 0
31 -1.93870 -2.64915 28.55751 0 0 0
32 -2.04913 -2.11117 29.37117 0 0 0
33 -2.56416 -2.07973 30.27673 0 0 0
34 -2.77676 -1.49044 31.00509 0 0 0
35 -2.10283 -1.45431 31.68144 0 0 0
36 -1.71251 -1.94170 32.43100 0 0 0
37 -2.01207 -2.25667 33.36600 0 0 0
38 -2.43633 -2.08962 34.28292 0 0 0
39 -2.55044 -1.71563 35.15584 0 0 0
40 -2.89295 -1.39017 36.04327 0 0 0
41 -2.84815 -1.07502 37.02271 0 0 0
42 -2.57706 -0.96739 37.91778 0 0 0
43 -2.01546 -0.14593 38.17238 0 0 0
44 -1.24658 0.49493 38.28046 0 0 0
45 -1.38951 0.08863 39.17750 0 0 0
46 -1.58430 0.29257 40.08991 0 0 0
47 -1.94560 0.60072 40.91095 0 0 0
48 -1.68542 0.56924 41.81121 0 0 0
49 -1.66011 0.56507 42.84130 0 0 0
50 -1.50436 1.20675 43.63790 0 0 0
51 -1.44094 0.87596 44.53793 0 0 0
52 -1.42345 0.66906 45.48102 0 0 0
53 -1.48772 0.31604 46.40687 0 0 0
54 -1.54375 -0.13724 47.25680 0 0 0
55 -1.55996 -0.59780 48.10592 0 0 0
56 -1.53342 -1.21216 48.86336 0 0 0
57 -1.10156 -1.26928 49.73679 0 0 0
58 -1.52866 -1.21044 50.56801 0 0 0
59 -1.87623 -0.63175 51.23305 0 0 0
60 -1.22142 -0.74713 51.88907 0 0 0
61 -0.40830 -0.96384 52.46038 0 0 0
62 -1.16689 -1.43800 52.94597 0 0 0
63 -1.82740 -1.98676 53.51774 0 0 0
64 -2.81540 -2.28830 53.43761 0 0 0
65 -3.76148 -2.56040 53.62423 0 0 0
66 -4.25621 -2.98310 54.35943 0 0 0
67 -5.11463 -3.27099 54.68060 0 0 0
68 -6.06329 -3.23553 54.96794 0 0 0
69 -6.80251 -3.62457 55.43913 0 0 0
70 -7.40793 -3.98702 56.08954 0 0 0
71 -7.86640 -4.81440 55.91576 0 0 0
72 -8.81547 -4.81170 56.18368 0 0 0
73 -9.65047 -5.19942 56.61098 0 0 0
74 -10.54712 -5.51920 56.68353 0 0 0
75 -11.40148 -6.06226 56.96766 0 0 0
76 -12.29338 -6.40923 56.78920 0 0 0
77 -12.98035 -6.91181 57.33072 0 0 0
78 -13.95585 -7.11972 57.54108 0 0 0
79 -14.76759 -7.68161 57.63695 0 0 0
80 -15.18471 -8.22273 57.01174 0 0 0
81 -15.57949 -9.12521 57.19951 0 0 0
82 -16.24879 -9.75923 57.44238 0 0 0
83 -17.21089 -9.42124 57.36321 0 0 0
84 -17.99425 -9.63476 57.88443 0 0 0
85 -18.27514 -10.59151 58.02580 0 0 0
86 -18.96580 -10.95013 58.67220 0 0 0
87 -19.62929 -11.61364 59.04140 0 0 0
88 -20.44976 -11.18803 59.49036 0 0 0
89 -21.39119 -11.01241 59.26078 0 0 0
90 -22.10666 -11.61340 59.49054 0 0 0
91 -22.30264 -12.26032 60.18609 0 0 0
92 -23.12869 -11.80206 60.35692 0 0 0
93 -23.53548 -11.38692 61.21136 0 0 0
94 -24.09662 -11.99017 61.82414 0 0 0
95 -24.63467 -12.28829 62.62391 0 0 0
96 -25.54746 -12.17553 62.82370 0 0 0
97 -26.19535 -12.49064 63.70846 0 0 0
98 -27.04958 -12.84594 63.75850 0 0 0
99 -27.76775 -13.47191 64.04135 0 0 0
100 -28.19447 -14.28697 63.89658 0 0 0
101 -29.08381 -14.70129 64.19475 0 0 0
102 -29.82323 -14.32901 64.79503 0 0 0
103 -30.35956 -14.83655 65.47722 0 0 0
104 -31.17979 -15.18207 65.83860 0 0 0
105 -32.21542 -15.34599 65.87194 0 0 0
106 -32.85867 -15.25218 66.57257 0 0 0
107 -33.80457 -15.09035 66.37397 0 0 0
108 -34.41900 -15.82087 66.03771 0 0 0
109 -35.10177 -16.32508 65.49850 0 0 0
110 -35.88384 -16.92205 65.59505 0 0 0
111 -36.57160 -17.62155 65.95575 0 0 0
112 -36.98997 -16.85955 66.42728 0 0 0
113 -37.09822 -16.09103 66.93315 0 0 0
114 -37.45737 -15.50547 67.67475 0 0 0
115 -38.25287 -14.96529 67.86926 0 0 0
116 -38.80214 -14.71055 68.63051 0 0 0
117 -39.56667 -14.65146 69.17557 0 0 0
118 -40.49274 -14.85222 69.45596 0 0 0
119 -41.36892 -15.43333 69.44414 0 0 0
120 -40.94311 -16.07277 68.84000 0 0 0
121 -40.29289 -15.43265 68.39488 0 0 0
122 0.37360 -1.14983 53.11036 0 0 0
123 1.28070 -1.22163 53.37528 0 0 0
124 2.00869 -1.18610 54.08241 0 0 0
125 2.72395 -0.69674 54.48108 0 0 0
126 3.69446 -0.91370 54.68765 0 0 0
127 4.61016 -1.10153 54.84199 0 0 0
128 5.33987 -1.01256 55.42613 0 0 0
129 5.97063 -1.00615 56.18124 0 0 0
130 6.41606 -0.78424 56.95479 0 0 0
131 6.87745 -0.30925 57.60810 0 0 0
132 7.13794 0.40918 58.20656 0 0 0
133 7.74404 0.26546 59.01383 0 0 0
134 8.59026 -0.13937 59.32062 0 0 0
135 9.38830 -0.66462 59.73011 0 0 0
136 9.85484 -1.50528 59.87780 0 0 0
137 10.73002 -1.67869 60.16945 0 0 0
138 11.49876 -1.94431 60.73058 0 0 0
139 12.50240 -1.72363 60.57989 0 0 0
140 13.25648 -1.96186 61.09279 0 0 0
141 14.18113 -2.36071 61.01390 0 0 0
142 14.90692 -2.03411 61.51535 0 0 0
143 15.64389 -2.53625 61.85193 0 0 0
144 16.57338 -2.76238 62.24506 0 0 0
145 17.57661 -2.97044 62.25672 0 0 0
146 18.40779 -2.51823 62.15919 0 0 0
147 19.26786 -2.76211 62.63049 0 0 0
148 20.26647 -2.54143 62.77324 0 0 0
149 20.78896 -2.61646 63.57258 0 0 0
150 21.68272 -2.24140 63.80492 0 0 0
151 22.59183 -2.39041 64.02351 0 0 0
152 23.30558 -2.06952 64.71270 0 0 0
153 24.06250 -1.77265 65.22391 0 0 0
154 24.86105 -2.25635 65.38594 0 0 0
155 25.74183 -2.20607 65.73474 0 0 0
156 26.58061 -2.04953 66.24282 0 0 0
157 27.35846 -1.64896 66.59557 0 0 0
158 28.17013 -1.63235 67.12338 0 0 0
159 28.55286 -1.88517 67.99937 0 0 0
160 29.45304 -2.08137 68.31966 0 0 0
161 30.42420 -2.06841 68.41570 0 0 0
162 31.43256 -2.10937 68.50814 0 0 0
163 32.35690 -2.46992 68.31030 0 0 0
164 33.03876 -2.80012 68.92147 0 0 0
165 33.81549 -2.26331 69.27211 0 0 0
166 34.46349 -1.63275 69.63748 0 0 0
167 35.40592 -1.59280 69.75227 0 0 0
168 36.14102 -1.54471 70.41531 0 0 0
169 37.05075 -1.53528 70.78063 0 0 0
170 37.98053 -1.81938 70.96891 0 0 0
171 38.31451 -2.72242 71.21787 0 0 0
172 38.96857 -3.00377 71.94037 0 0 0
173 39.72630 -2.53062 72.36434 0 0 0
174 40.00784 -3.41691 72.58075 0 0 0
175 39.75159 -3.78083 73.48380 0 0 0
176 39.26942 -4.16852 74.25457 0 0 0
177 39.87148 -4.93692 74.33315 0 0 0
178 40.54431 -5.65436 74.44316 0 0 0
179 41.11911 -5.18632 75.16583 0 0 0
180 41.03893 -4.38226 75.63684 0 0 0
181 40.81671 -3.57225 76.09183 0 0 0
182 -0.13988 -0.19084 53.01545 0 0 0
183 -0.30058 0.71719 53.51894 0 0 0
184 0.31416 1.41743 53.94204 0 0 0
185 0.80081 2.16256 54.42504 0 0 0
186 0.49784 3.11339 54.73874 0 0 0
187 0.68480 3.56416 55.54136 0 0 0
188 0.24877 4.37866 55.46508 0 0 0
189 0.03838 4.82474 56.40976 0 0 0
190 0.59259 5.37742 56.91240 0 0 0
191 0.82936 6.13607 56.35738 0 0 0
192 0.47785 7.08148 56.46715 0 0 0
193 0.15260 8.11805 56.77224 0 0 0
194 0.20756 8.76569 57.55882 0 0 0
195 0.32118 9.64993 57.95450 0 0 0
196 -0.36660 10.05192 58.48978 0 0 0
197 -0.50460 11.03827 58.59953 0 0 0
198 -0.88702 11.62234 59.42262 0 0 0