ITEM: TIMESTEP
0
ITEM: NUMBER OF ATOMS
301
ITEM: BOX BOUNDS pp pp pp
-1.0000000000000000e+03 1.0000000000000000e+03
-1.0000000000000000e+03 1.0000000000000000e+03
-1.0000000000000000e+03 1.0000000000000000e+03
ITEM: ATOMS id x y z ix iy iz
1 0.00000 0.00000 0.00000 0 0 0
2 0.00000 0.00000 1.00000 0 0 0
3 0.00000 -0.50000 1.86603 0 0 0
4 0.00000 0.00000 2.73205 0 0 0
5 0.00000 -0.50000 3.59808 0 0 0
6 0.00000 0.00000 4.46410 0 0 0
7 0.00000 -0.50000 5.33013 0 0 0
8 0.00000 0.00000 6.19615 0 0 0
9 0.00000 -0.50000 7.06218 0 0 0
10 0.00000 0.00000 7.92820 0 0 0
11 0.00000 -0.50000 8.79423 0 0 0
12 0.00000 0.00000 9.66025 0 0 0
13 0.00000 -0.50000 10.52628 0 0 0
14 0.00000 0.00000 11.39230 0 0 0
15 0.00000 -0.50000 12.25833 0 0 0
16 0.00000 0.00000 13.12436 0 0 0
17 0.00000 -0.50000 13.99038 0 0 0
18 0.00000 0.00000 14.85641 0 0 0
19 0.00000 -0.50000 15.72243 0 0 0
20 0.00000 0.00000 16.58846 0 0 0
21 0.00000 -0.50000 17.45448 0 0 0
22 0.00000 0.00000 18.32051 0 0 0
23 0.00000 -0.50000 19.18653 0 0 0
24 0.00000 0.00000 20.05256 0 0 0
25 0.00000 -0.50000 20.91858 0 0 0
26 0.00000 0.00000 21.78461 0 0 0
27 0.00000 -0.50000 22.65064 0 0 0
28 0.00000 0.00000 23.51666 0 0 0
29 0.00000 -0.50000 24.38269 0 0 0
30 0.00000 0.00000 25.24871 0 0 0
31 0.00000 -0.50000 26.11474 0 0 0
32 0.00000 0.00000 26.98076 0 0 0
33 0.00000 -0.50000 27.84679 0 0 0
34 0.00000 0.00000 28.71281 0 0 0
35 0.00000 -0.50000 29.57884 0 0 0
36 0.00000 0.00000 30.44486 0 0 0
37 0.00000 -0.50000 31.31089 0 0 0
38 0.00000 0.00000 32.17691 0 0 0
39 0.00000 -0.50000 33.04294 0 0 0
40 0.00000 0.00000 33.90897 0 0 0
41 0.00000 -0.50000 34.77499 0 0 0
42 0.00000 0.00000 35.64102 0 0 0
43 0.00000 -0.50000 36.50704 0 0 0
44 0.00000 0.00000 37.37307 0 0 0
45 0.00000 -0.50000 38.23909 0 0 0
46 0.00000 0.00000 39.10512 0 0 0
47 0.00000 -0.50000 39.97114 0 0 0
48 0.00000 0.00000 40.83717 0 0 0
49 0.00000 -0.50000 41.70319 0 0 0
50 0.00000 0.00000 42.56922 0 0 0
51 0.00000 -0.50000 43.43524 0 0 0
52 0.00000 0.00000 44.30127 0 0 0
53 0.00000 -0.50000 45.16730 0 0 0
54 0.00000 0.00000 46.03332 0 0 0
55 0.00000 -0.50000 46.89935 0 0 0
56 0.00000 0.00000 47.76537 0 0 0
57 0.00000 -0.50000 48.63140 0 0 0
58 0.00000 0.00000 49.49742 0 0 0
59 0.00000 -0.50000 50.36345 0 0 0
60 0.00000 0.00000 51.22947 0 0 0
61 0.00000 -0.50000 52.09550 0 0 0
62 0.00000 0.00000 52.96152 0 0 0
63 0.00000 -0.50000 53.82755 0 0 0
64 0.00000 0.00000 54.69358 0 0 0
65 0.00000 -0.50000 55.55960 0 0 0
66 0.00000 0.00000 56.42563 0 0 0
67 0.00000 -0.50000 57.29165 0 0 0
68 0.00000 0.00000 58.15768 0 0 0
69 0.00000 -0.50000 59.02370 0 0 0
70 0.00000 0.00000 59.88973 0 0 0
71 0.00000 -0.50000 60.75575 0 0 0
72 0.00000 0.00000 61.62178 0 0 0
73 0.00000 -0.50000 62.48780 0 0 0
74 0.00000 0.00000 63.35383 0 0 0
75 0.00000 -0.50000 64.21985 0 0 0
76 0.00000 0.00000 65.08588 0 0 0
77 0.00000 -0.50000 65.95191 0 0 0
78 0.00000 0.00000 66.81793 0 0 0
79 0.00000 -0.50000 67.68396 0 0 0
80 0.00000 0.00000 68.54998 0 0 0
81 0.00000 -0.50000 69.41601 0 0 0
82 0.00000 0.00000 70.28203 0 0 0
83 0.00000 -0.50000 71.14806 0 0 0
84 0.00000 0.00000 72.01408 0 0 0
85 0.00000 -0.50000 72.88011 0 0 0
86 0.00000 0.00000 73.74613 0 0 0
87 0.00000 -0.50000 74.61216 0 0 0
88 0.00000 0.00000 75.47818 0 0 0
89 0.00000 -0.50000 76.34421 0 0 0
90 0.00000 0.00000 77.21024 0 0 0
91 0.00000 -0.50000 78.07626 0 0 0
92 0.00000 0.00000 78.94229 0 0 0
93 0.00000 -0.50000 79.80831 0 0 0
94 0.00000 0.00000 80.67434 0 0 0
95 0.00000 -0.50000 81.54036 0 0 0
96 0.00000 0.00000 82.40639 0 0 0
97 0.00000 -0.50000 83.27241 0 0 0
98 0.00000 0.00000 84.13844 0 0 0
99 0.00000 -0.50000 85.00446 0 0 0
100 0.00000 0.00000 85.87049 0 0 0
101 0.00000 -0.50000 86.73651 0 0 0
102 0.78577 -0.43469 87.35157 0 0 0
103 1.57154 -0.68565 87.91689 0 0 0
104 2.35731 -0.32156 88.41689 0 0 0
105 3.14309 -0.57253 88.98220 0 0 0
106 3.92886 -0.20843 89.48220 0 0 0
107 4.71463 -0.45940 90.04751 0 0 0
108 5.50040 -0.09531 90.54751 0 0 0
109 6.28617 -0.34627 91.11283 0 0 0
110 7.07194 0.01782 91.61283 0 0 0
111 7.85771 -0.23315 92.17814 0 0 0
112 8.64348 0.13095 92.67814 0 0 0
113 9.42926 -0.12002 93.24346 0 0 0
114 10.21503 0.24407 93.74346 0 0 0
115 11.00080 -0.00689 94.30877 0 0 0
116 11.78657 0.35720 94.80877 0 0 0
117 12.57234 0.10623 95.37408 0 0 0
118 13.35811 0.47032 95.87408 0 0 0
119 14.14388 0.21936 96.43940 0 0 0
120 14.92965 0.58345 96.93940 0 0 0
121 15.71543 0.33248 97.50471 0 0 0
122 16.50120 0.69658 98.00471 0 0 0
123 17.28697 0.44561 98.57002 0 0 0
124 18.07274 0.80970 99.07002 0 0 0
125 18.85851 0.55874 99.63534 0 0 0
126 19.64428 0.92283 100.13534 0 0 0
127 20.43005 0.67186 100.70065 0 0 0
128 21.21582 1.03596 101.20065 0 0 0
129 22.00160 0.78499 101.76596 0 0 0
130 22.78737 1.14908 102.26596 0 0 0
131 23.57314 0.89812 102.83128 0 0 0
132 24.35891 1.26221 103.33128 0 0 0
133 25.14468 1.01124 103.89659 0 0 0
134 25.93045 1.37534 104.39659 0 0 0
135 26.71622 1.12437 104.96190 0 0 0
136 27.50199 1.48846 105.46190 0 0 0
137 28.28777 1.23750 106.02722 0 0 0
138 29.07354 1.60159 106.52722 0 0 0
139 29.85931 1.35062 107.09253 0 0 0
140 30.64508 1.71472 107.59253 0 0 0
141 31.43085 1.46375 108.15785 0 0 0
142 32.21662 1.82784 108.65785 0 0 0
143 33.00239 1.57688 109.22316 0 0 0
144 33.78816 1.94097 109.72316 0 0 0
145 34.57394 1.69000 110.28847 0 0 0
146 35.35971 2.05409 110.78847 0 0 0
147 36.14548 1.80313 111.35379 0 0 0
148 36.93125 2.16722 111.85379 0 0 0
149 37.71702 1.91625 112.41910 0 0 0
150 38.50279 2.28035 112.91910 0 0 0
151 39.28856 2.02938 113.48441 0 0 0
152 40.07433 2.39347 113.98441 0 0 0
153 40.86011 2.14251 114.54973 0 0 0
154 41.64588 2.50660 115.04973 0 0 0
155 42.43165 2.25563 115.61504 0 0 0
156 43.21742 2.61973 116.11504 0 0 0
157 44.00319 2.36876 116.68035 0 0 0
158 44.78896 2.73285 117.18035 0 0 0
159 45.57473 2.48189 117.74567 0 0 0
160 46.36050 2.84598 118.24567 0 0 0
161 47.14628 2.59501 118.81098 0 0 0
162 47.93205 2.95911 119.31098 0 0 0
163 48.71782 2.70814 119.87629 0 0 0
164 49.50359 3.07223 120.37629 0 0 0
165 50.28936 2.82127 120.94161 0 0 0
166 51.07513 3.18536 121.44161 0 0 0
167 51.86090 2.93439 122.00692 0 0 0
168 52.64667 3.29849 122.50692 0 0 0
169 53.43245 3.04752 123.07224 0 0 0
170 54.21822 3.41161 123.57224 0 0 0
171 55.00399 3.16065 124.13755 0 0 0
172 55.78976 3.52474 124.63755 0 0 0
173 56.57553 3.27377 125.20286 0 0 0
174 57.36130 3.63786 125.70286 0 0 0
175 58.14707 3.38690 126.26818 0 0 0
176 58.93284 3.75099 126.76818 0 0 0
177 59.71862 3.50002 127.33349 0 0 0
178 60.50439 3.86412 127.83349 0 0 0
179 61.29016 3.61315 128.39880 0 0 0
180 62.07593 3.97724 128.89880 0 0 0
181 62.86170 3.72628 129.46412 0 0 0
182 63.64747 4.09037 129.96412 0 0 0
183 64.43324 3.83940 130.52943 0 0 0
184 65.21901 4.20350 131.02943 0 0 0
185 66.00479 3.95253 131.59474 0 0 0
186 66.79056 4.31662 132.09474 0 0 0
187 67.57633 4.06566 132.66006 0 0 0
188 68.36210 4.42975 133.16006 0 0 0
189 69.14787 4.17878 133.72537 0 0 0
190 69.93364 4.54288 134.22537 0 0 0
191 70.71941 4.29191 134.79068 0 0 0
192 71.50518 4.65600 135.29068 0 0 0
193 72.29096 4.40504 135.85600 0 0 0
194 73.07673 4.76913 136.35600 0 0 0
195 73.86250 4.51816 136.92131 0 0 0
196 74.64827 4.88226 137.42131 0 0 0
197 75.43404 4.63129 137.98663 0 0 0
198 76.21981 4.99538 138.48663 0 0 0
199 77.00558 4.74442 139.05194 0 0 0
200 77.79135 5.10851 139.55194 0 0 0
201 78.57713 4.85754 140.11725 0 0 0
202 -0.78577 -1.06531 86.98748 0 0 0
203 -1.57154 -1.68037 86.92217 0 0 0
204 -2.35731 -2.04447 87.42217 0 0 0
205 -3.14309 -2.65952 87.35685 0 0 0
206 -3.92886 -3.02362 87.85685 0 0 0
207 -4.71463 -3.63868 87.79154 0 0 0
208 -5.50040 -4.00277 88.29154 0 0 0
209 -6.28617 -4.61783 88.22623 0 0 0
210 -7.07194 -4.98192 88.72623 0 0 0
211 -7.85771 -5.59698 88.66091 0 0 0
212 -8.64348 -5.96107 89.16091 0 0 0
213 -9.42926 -6.57613 89.09560 0 0 0
214 -10.21503 -6.94022 89.59560 0 0 0
215 -11.00080 -7.55528 89.53029 0 0 0
216 -11.78657 -7.91938 90.03029 0 0 0
217 -12.57234 -8.53444 89.96497 0 0 0
218 -13.35811 -8.89853 90.46497 0 0 0
219 -14.14388 -9.51359 90.39966 0 0 0
220 -14.92965 -9.87768 90.89966 0 0 0
221 -15.71543 -10.49274 90.83435 0 0 0
222 -16.50120 -10.85683 91.33435 0 0 0
223 -17.28697 -11.47189 91.26903 0 0 0
224 -18.07274 -11.83598 91.76903 0 0 0
225 -18.85851 -12.45104 91.70372 0 0 0
226 -19.64428 -12.81514 92.20372 0 0 0
227 -20.43005 -13.43019 92.13840 0 0 0
228 -21.21582 -13.79429 92.63840 0 0 0
229 -22.00160 -14.40935 92.57309 0 0 0
230 -22.78737 -14.77344 93.07309 0 0 0
231 -23.57314 -15.38850 93.00778 0 0 0
232 -24.35891 -15.75259 93.50778 0 0 0
233 -25.14468 -16.36765 93.44246 0 0 0
234 -25.93045 -16.73174 93.94246 0 0 0
235 -26.71622 -17.34680 93.87715 0 0 0
236 -27.50199 -17.71089 94.37715 0 0 0
237 -28.28777 -18.32595 94.31184 0 0 0
238 -29.07354 -18.69005 94.81184 0 0 0
239 -29.85931 -19.30511 94.74652 0 0 0
240 -30.64508 -19.66920 95.24652 0 0 0
241 -31.43085 -20.28426 95.18121 0 0 0
242 -32.21662 -20.64835 95.68121 0 0 0
243 -33.00239 -21.26341 95.61590 0 0 0
244 -33.78816 -21.62750 96.11590 0 0 0
245 -34.57394 -22.24256 96.05058 0 0 0
246 -35.35971 -22.60665 96.55058 0 0 0
247 -36.14548 -23.22171 96.48527 0 0 0
248 -36.93125 -23.58581 96.98527 0 0 0
249 -37.71702 -24.20086 96.91996 0 0 0
250 -38.50279 -24.56496 97.41996 0 0 0
251 -39.28856 -25.18002 97.35464 0 0 0
252 -40.07433 -25.54411 97.85464 0 0 0
253 -40.86011 -26.15917 97.78933 0 0 0
254 -41.64588 -26.52326 98.28933 0 0 0
255 -42.43165 -27.13832 98.22402 0 0 0
256 -43.21742 -27.50241 98.72402 0 0 0
257 -44.00319 -28.11747 98.65870 0 0 0
258 -44.78896 -28.48156 99.15870 0 0 0
259 -45.57473 -29.09662 99.09339 0 0 0
260 -46.36050 -29.46072 99.59339 0 0 0
261 -47.14628 -30.07578 99.52807 0 0 0
262 -47.93205 -30.43987 100.02807 0 0 0
263 -48.71782 -31.05493 99.96276 0 0 0
264 -49.50359 -31.41902 100.46276 0 0 0
265 -50.28936 -32.03408 100.39745 0 0 0
266 -51.07513 -32.39817 100.89745 0 0 0
267 -51.86090 -33.01323 100.83213 0 0 0
268 -52.64667 -33.37732 101.33213 0 0 0
269 -53.43245 -33.99238 101.26682 0 0 0
270 -54.21822 -34.35648 101.76682 0 0 0
271 -55.00399 -34.97153 101.70151 0 0 0
272 -55.78976 -35.33563 102.20151 0 0 0
273 -56.57553 -35.95069 102.13619 0 0 0
274 -57.36130 -36.31478 102.63619 0 0 0
275 -58.14707 -36.92984 102.57088 0 0 0
276 -58.93284 -37.29393 103.07088 0 0 0
277 -59.71862 -37.90899 103.00557 0 0 0
278 -60.50439 -38.27308 103.50557 0 0 0
279 -61.29016 -38.88814 103.44025 0 0 0
280 -62.07593 -39.25223 103.94025 0 0 0
281 -62.86170 -39.86729 103.87494 0 0 0
282 -63.64747 -40.23139 104.37494 0 0 0
283 -64.43324 -40.84645 104.30963 0 0 0
284 -65.21901 -41.21054 104.80963 0 0 0
285 -66.00479 -41.82560 104.74431 0 0 0
286 -66.79056 -42.18969 105.24431 0 0 0
287 -67.57633 -42.80475 105.17900 0 0 0
288 -68.36210 -43.16884 105.67900 0 0 0
289 -69.14787 -43.78390 105.61368 0 0 0
290 -69.93364 -44.14799 106.11368 0 0 0
291 -70.71941 -44.76305 106.04837 0 0 0
292 -71.50518 -45.12715 106.54837 0 0 0
293 -72.29096 -45.74220 106.48306 0 0 0
294 -73.07673 -46.10630 106.98306 0 0 0
295 -73.86250 -46.72136 106.91774 0 0 0
296 -74.64827 -47.08545 107.41774 0 0 0
297 -75.43404 -47.70051 107.35243 0 0 0
298 -76.21981 -48.06460 107.85243 0 0 0
299 -77.00558 -48.67966 107.78712 0 0 0
300 -77.79135 -49.04375 108.28712 0 0 0
301 -78.57713 -49.65881 108.22180 0 0 0
ITEM: TIMESTEP
1000
ITEM: NUMBER OF ATOMS
301
ITEM: BOX BOUNDS pp pp pp
-1.0000000000000000e+03 1.0000000000000000e+03
-1.0000000000000000e+03 1.0000000000000000e+03
-1.0000000000000000e+03 1.0000000000000000e+03
ITEM: ATOMS id x y z ix iy iz
1 1.03050 -0.10018 5.13782 0 0 0
2 1.15785 0.65673 5.72560 0 0 0
3 0.92425 1.16279 6.55411 0 0 0
4 0.05810 0.76808 6.61818 0 0 0
5 -0.77781 0.32937 6.87427 0 0 0
6 -0.77444 -0.26066 7.61226 0 0 0
7 -0.71380 -0.21834 8.55916 0 0 0
8 0.23010 -0.07768 8.79303 0 0 0
9 1.20042 -0.40853 8.91850 0 0 0
10 0.90090 -1.33563 9.35095 0 0 0
11 0.25022 -1.72867 9.98067 0 0 0
12 -0.40044 -1.58865 10.65257 0 0 0
13 -0.53288 -1.43125 11.67196 0 0 0
14 -0.67749 -1.11659 12.59398 0 0 0
15 -1.03216 -0.73811 13.44105 0 0 0
16 -1.26362 -1.07415 14.39014 0 0 0
17 -1.08496 -0.77713 15.30061 0 0 0
18 -0.76428 -1.32998 16.04279 0 0 0
19 -0.73964 -1.59094 17.04228 0 0 0
20 -0.22311 -1.32093 17.96200 0 0 0
21 -0.08321 -1.39456 18.92656 0 0 0
22 -0.35009 -0.75877 19.63774 0 0 0
23 0.07690 -1.11188 20.58793 0 0 0
24 -0.18479 -1.55656 21.43219 0 0 0
25 -0.01007 -1.48634 22.37143 0 0 0
26 -0.28926 -0.92982 23.15528 0 0 0
27 -0.70483 -0.32383 23.81405 0 0 0
28 -1.48202 -0.27379 24.49131 0 0 0
29 -1.24160 0.55014 25.00704 0 0 0
30 -1.75810 0.88255 25.73008 0 0 0
31 -2.13895 0.84601 26.65007 0 0 0
32 -1.72794 0.85233 27.58068 0 0 0
33 -1.83130 0.76487 28.58674 0 0 0
34 -1.81879 0.68029 29.49965 0 0 0
35 -1.56802 0.15679 30.25585 0 0 0
36 -1.86754 -0.44594 31.05242 0 0 0
37 -2.15505 -0.99870 31.82365 0 0 0
38 -2.20204 -1.00416 32.77321 0 0 0
39 -2.41747 -1.25815 33.67325 0 0 0
40 -2.66574 -1.23226 34.60503 0 0 0
41 -2.29989 -1.43213 35.51462 0 0 0
42 -1.93559 -1.75661 36.32193 0 0 0
43 -1.50280 -1.66404 37.27578 0 0 0
44 -0.96845 -1.71698 38.11249 0 0 0
45 -1.13694 -2.03949 38.98173 0 0 0
46 -0.79227 -2.43239 39.83355 0 0 0
47 -1.01071 -2.33183 40.79716 0 0 0
48 -1.41377 -2.01679 41.60499 0 0 0
49 -1.48153 -2.48961 42.45766 0 0 0
50 -0.84398 -2.32252 43.13041 0 0 0
51 -0.55343 -2.17710 44.15917 0 0 0
52 -0.33450 -1.64675 45.00601 0 0 0
53 -0.44100 -0.99603 45.76062 0 0 0
54 -0.36239 -0.39373 46.52062 0 0 0
55 -0.12183 0.12129 47.31086 0 0 0
56 0.14161 0.58902 48.11869 0 0 0
57 0.34704 1.09766 48.96770 0 0 0
58 0.80758 0.80236 49.75161 0 0 0
59 0.67752 1.11681 50.64282 0 0 0
60 0.12285 1.11558 51.47604 0 0 0
61 -0.18827 1.28409 52.42788 0 0 0
62 -0.77369 0.59947 52.65697 0 0 0
63 -0.77817 0.14662 53.55812 0 0 0
64 -0.56440 0.07156 54.47122 0 0 0
65 -0.68642 -0.31743 55.35082 0 0 0
66 -0.80833 -0.12000 56.26976 0 0 0
67 -0.59992 0.14829 57.20547 0 0 0
68 -0.13805 0.50099 57.98385 0 0 0
69 0.03637 0.10346 58.96737 0 0 0
70 -0.16665 -0.07444 59.95278 0 0 0
71 -0.44606 -0.06753 61.04290 0 0 0
72 -0.17584 -0.51348 61.85397 0 0 0
73 -0.00310 -0.49339 62.85526 0 0 0
74 -0.12681 -0.94941 63.77840 0 0 0
75 -0.29445 -1.14188 64.69841 0 0 0
76 -0.43511 -1.13782 65.63800 0 0 0
77 -0.33437 -0.96852 66.68500 0 0 0
78 -1.05261 -0.88789 67.38638 0 0 0
79 -1.49818 -0.65976 68.28204 0 0 0
80 -1.35206 -0.96996 69.17370 0 0 0
81 -1.08241 -0.62671 70.02502 0 0 0
82 -1.17571 -0.49066 70.94718 0 0 0
83 -1.39430 -0.39214 71.92994 0 0 0
84 -1.33487 -0.96940 72.84864 0 0 0
85 -0.71574 -0.46803 73.47388 0 0 0
86 -0.58423 -1.28079 74.07314 0 0 0
87 -0.94894 -1.73040 74.84195 0 0 0
88 -1.29245 -1.72614 75.84790 0 0 0
89 -1.12020 -2.32238 76.60117 0 0 0
90 -0.56042 -2.40605 77.44944 0 0 0
91 -0.39812 -2.58986 78.36927 0 0 0
92 -0.25177 -2.71811 79.27652 0 0 0
93 -0.50477 -2.79983 80.25147 0 0 0
94 -0.64847 -3.07000 81.15096 0 0 0
95 -0.40765 -3.02319 82.12282 0 0 0
96 0.23774 -3.16761 82.95263 0 0 0
97 0.54525 -3.37445 83.81589 0 0 0
98 0.77036 -3.34471 84.80016 0 0 0
99 1.12170 -3.07568 85.81961 0 0 0
100 0.83589 -2.89806 86.74302 0 0 0
101 0.83758 -2.34753 87.68648 0 0 0
102 1.11200 -2.11458 88.55211 0 0 0
103 2.08551 -1.93767 88.86622 0 0 0
104 2.32291 -1.37238 89.58256 0 0 0
105 3.22290 -1.10937 90.09737 0 0 0
106 4.08977 -0.94407 90.60102 0 0 0
107 4.78941 -0.42487 91.19073 0 0 0
108 5.34820 -0.59078 92.02771 0 0 0
109 5.82112 -0.82915 92.81483 0 0 0
110 6.60213 -0.67276 93.37875 0 0 0
111 7.45433 -0.48858 93.80315 0 0 0
112 8.33841 -0.59425 94.23413 0 0 0
113 9.29430 -0.53022 94.28717 0 0 0
114 10.01982 -0.37394 94.94253 0 0 0
115 10.66224 -0.00985 95.67766 0 0 0
116 11.60310 -0.02326 96.09797 0 0 0
117 12.27914 0.31864 96.68569 0 0 0
118 12.92220 0.66106 97.31886 0 0 0
119 13.80937 0.39258 97.55128 0 0 0
120 14.31036 0.35054 98.36721 0 0 0
121 15.22451 0.56431 98.67440 0 0 0
122 15.91753 0.50858 99.35209 0 0 0
123 16.61206 -0.16635 99.40282 0 0 0
124 17.25356 -0.07450 100.15722 0 0 0
125 17.94193 -0.05025 100.88926 0 0 0
126 18.97364 0.09354 101.11702 0 0 0
127 19.74250 0.37571 101.58025 0 0 0
128 20.57406 0.38791 102.04543 0 0 0
129 21.09286 0.75506 102.69013 0 0 0
130 22.11468 1.09880 102.93837 0 0 0
131 22.93592 0.70747 103.28779 0 0 0
132 23.85317 0.54316 103.60664 0 0 0
133 24.74020 0.69987 103.91576 0 0 0
134 25.24140 1.15999 104.68519 0 0 0
135 26.11290 1.30975 105.25232 0 0 0
136 27.08437 1.42735 105.53579 0 0 0
137 28.02193 1.44916 105.77292 0 0 0
138 28.78300 1.68653 106.25358 0 0 0
139 29.36485 2.21348 106.84671 0 0 0
140 29.75293 2.28593 107.73361 0 0 0
141 30.64597 2.60165 108.09993 0 0 0
142 31.12812 2.77756 108.98437 0 0 0
143 31.95370 2.91279 109.54798 0 0 0
144 32.57469 3.16942 110.27305 0 0 0
145 33.26056 2.74335 110.69973 0 0 0
146 34.24547 2.64665 110.91605 0 0 0
147 35.23075 2.74257 111.03597 0 0 0
148 36.31245 2.95846 111.40327 0 0 0
149 36.84790 3.03668 112.18872 0 0 0
150 37.65325 3.39101 112.64314 0 0 0
151 38.59734 3.38996 112.95637 0 0 0
152 39.34125 3.45393 113.58917 0 0 0
153 40.29890 3.39534 114.06561 0 0 0
154 41.00414 4.15723 114.31583 0 0 0
155 41.66127 4.01700 115.04827 0 0 0
156 42.46468 3.91703 115.65207 0 0 0
157 43.28066 4.14145 116.20540 0 0 0
158 44.38955 4.20649 116.19010 0 0 0
159 44.96751 4.24631 117.01606 0 0 0
160 45.66603 4.17563 117.75025 0 0 0
161 46.36942 4.46078 118.44475 0 0 0
162 46.80745 4.25617 119.30170 0 0 0
163 47.73320 4.06069 119.72117 0 0 0
164 48.63245 4.14422 120.21154 0 0 0
165 49.51065 4.49505 120.45251 0 0 0
166 50.14307 4.54242 121.26915 0 0 0
167 51.01332 5.03619 121.32960 0 0 0
168 51.78812 4.39129 121.64522 0 0 0
169 52.67930 4.12114 121.97212 0 0 0
170 53.54285 3.62579 122.08209 0 0 0
171 54.19094 4.07881 122.67582 0 0 0
172 54.73039 4.48128 123.41838 0 0 0
173 55.64537 4.30127 123.81745 0 0 0
174 56.24546 4.69782 124.42872 0 0 0
175 57.03139 4.10636 124.66841 0 0 0
176 57.32324 4.59217 125.47922 0 0 0
177 58.29436 4.71102 125.34105 0 0 0
178 58.90275 4.76300 126.07409 0 0 0
179 59.90885 4.84737 126.25402 0 0 0
180 60.75337 4.91800 126.78484 0 0 0
181 61.53125 4.90785 127.46329 0 0 0
182 62.19417 5.09600 128.11699 0 0 0
183 63.14481 5.37496 128.38405 0 0 0
184 63.89472 5.50577 128.98942 0 0 0
185 64.80823 5.90429 128.88707 0 0 0
186 65.58846 5.83549 129.51797 0 0 0
187 65.90201 5.73854 130.55440 0 0 0
188 66.72633 5.73415 131.10095 0 0 0
189 67.60182 5.33811 131.65614 0 0 0
190 68.12631 5.95200 132.21310 0 0 0
191 68.79493 5.53932 132.75633 0 0 0
192 69.48906 5.92427 133.28631 0 0 0
193 70.43886 5.65233 133.54329 0 0 0
194 71.07663 5.33177 134.22008 0 0 0
195 71.49665 5.76723 135.06872 0 0 0
196 72.14937 6.44919 135.11557 0 0 0
197 72.90366 5.96245 134.69242 0 0 0
198 73.32630 5.06602 134.73898 0 0 0
199 73.09530 4.35671 135.33362 0 0 0
200 73.53648 3.77875 135.96774 0 0 0
201 73.83730 2.82272 136.07051 0 0 0
202 0.15256 -2.65573 88.36911 0 0 0
203 -0.71719 -2.65099 88.91344 0 0 0
204 -1.60926 -2.94886 88.89693 0 0 0
205 -2.42850 -3.63930 88.75104 0 0 0
206 -3.21244 -4.27483 88.93552 0 0 0
207 -4.19227 -4.35197 88.99286 0 0 0
208 -4.68509 -5.14647 88.95953 0 0 0
209 -5.65409 -5.42396 89.28219 0 0 0
210 -6.55491 -5.72499 89.15445 0 0 0
211 -7.43036 -5.95551 88.80659 0 0 0
212 -8.17846 -6.56115 89.01280 0 0 0
213 -9.01996 -7.06112 89.26758 0 0 0
214 -9.86179 -7.36956 89.57155 0 0 0
215 -10.49603 -8.08722 89.38124 0 0 0
216 -11.31936 -8.39109 89.98572 0 0 0
217 -12.25900 -8.74394 90.11025 0 0 0
218 -12.84713 -9.45080 90.27851 0 0 0
219 -13.49219 -10.10388 90.60412 0 0 0
220 -13.91825 -10.78291 91.20613 0 0 0
221 -14.93602 -11.05178 91.19150 0 0 0
222 -15.75193 -11.60103 90.97853 0 0 0
223 -16.47533 -12.04146 91.51820 0 0 0
224 -17.43301 -12.35518 91.36956 0 0 0
225 -18.20697 -13.00332 91.48622 0 0 0
226 -19.14666 -13.52929 91.23305 0 0 0
227 -19.94876 -14.08183 91.52456 0 0 0
228 -20.61031 -14.67441 91.95391 0 0 0
229 -21.47260 -15.22955 91.90779 0 0 0
230 -22.38961 -15.67841 91.82843 0 0 0
231 -23.38167 -15.80627 91.81587 0 0 0
232 -24.38509 -16.01263 91.92598 0 0 0
233 -25.23118 -16.47584 92.33379 0 0 0
234 -26.06064 -16.81444 92.95635 0 0 0
235 -26.92603 -17.03526 93.43134 0 0 0
236 -27.42958 -17.07127 94.19604 0 0 0
237 -28.37671 -17.36359 94.49724 0 0 0
238 -29.19190 -17.72293 94.10932 0 0 0
239 -29.88435 -18.44107 94.17923 0 0 0
240 -30.48255 -18.93323 94.75964 0 0 0
241 -31.40374 -19.34201 94.84021 0 0 0
242 -32.06772 -20.04698 95.16215 0 0 0
243 -32.94444 -20.36880 95.42124 0 0 0
244 -33.64681 -21.14619 95.49438 0 0 0
245 -34.34567 -21.89931 95.42533 0 0 0
246 -35.17438 -22.49407 95.63278 0 0 0
247 -35.85042 -23.14348 95.78593 0 0 0
248 -36.34563 -23.82133 96.28440 0 0 0
249 -37.13533 -24.34894 96.57337 0 0 0
250 -38.12614 -24.59522 96.58296 0 0 0
251 -38.76220 -25.35744 96.66017 0 0 0
252 -39.66747 -25.65365 97.01326 0 0 0
253 -40.43551 -26.21575 96.91059 0 0 0
254 -41.00283 -26.96847 96.74706 0 0 0
255 -41.89461 -27.23438 96.98696 0 0 0
256 -42.46794 -27.89552 97.39372 0 0 0
257 -43.16371 -28.55696 97.69137 0 0 0
258 -43.57230 -29.18413 98.48461 0 0 0
259 -44.15857 -29.99240 98.69717 0 0 0
260 -45.18748 -30.37289 98.66068 0 0 0
261 -46.19692 -30.44196 98.93110 0 0 0
262 -47.04272 -30.64470 99.29206 0 0 0
263 -48.06316 -30.32347 99.24148 0 0 0
264 -49.00050 -30.61118 98.84033 0 0 0
265 -49.90329 -30.90344 99.10450 0 0 0
266 -50.73707 -31.33080 99.41530 0 0 0
267 -51.32887 -31.22619 100.18463 0 0 0
268 -51.94494 -32.05227 100.40581 0 0 0
269 -52.85248 -32.53519 100.45757 0 0 0
270 -53.66068 -32.93696 100.79078 0 0 0
271 -54.44673 -33.37151 101.15771 0 0 0
272 -55.35230 -33.80821 101.37786 0 0 0
273 -56.10269 -34.13222 101.80673 0 0 0
274 -57.00647 -34.44292 101.84567 0 0 0
275 -57.93583 -34.81325 102.19231 0 0 0
276 -58.58424 -35.53517 101.97489 0 0 0
277 -58.65928 -36.55703 102.04567 0 0 0
278 -59.00205 -37.39744 102.39846 0 0 0
279 -59.78608 -37.55057 103.06998 0 0 0
280 -60.37127 -38.38444 103.39727 0 0 0
281 -61.18690 -38.83066 102.91637 0 0 0
282 -61.92005 -39.40506 103.20568 0 0 0
283 -62.61560 -39.91386 103.73363 0 0 0
284 -63.38977 -40.28967 104.33229 0 0 0
285 -64.24392 -40.72232 104.54337 0 0 0
286 -64.82837 -40.92811 105.26408 0 0 0
287 -65.81201 -40.97519 105.10523 0 0 0
288 -66.74542 -41.16175 105.18916 0 0 0
289 -67.61280 -41.34065 104.77373 0 0 0
290 -68.28709 -42.09417 104.72498 0 0 0
291 -68.86700 -42.62960 105.39590 0 0 0
292 -69.39176 -43.45735 105.68102 0 0 0
293 -69.87473 -43.67872 106.48892 0 0 0
294 -70.49195 -44.40047 106.61260 0 0 0
295 -71.43436 -44.73804 106.52498 0 0 0
296 -72.27378 -45.23974 106.45488 0 0 0
297 -72.85921 -45.87455 106.96278 0 0 0
298 -73.80487 -45.72978 106.95986 0 0 0
299 -74.74475 -45.86913 107.08779 0 0 0
300 -75.31069 -45.56241 106.35007 0 0 0
301 -75.90028 -46.12344 105.78609 0 0 0
ITEM: TIMESTEP
2000
ITEM: NUMBER OF ATOMS
301
ITEM: BOX BOUNDS pp pp pp
-1.0000000000000000e+03 1.0000000000000000e+03
-1.0000000000000000e+03 1.0000000000000000e+03
-1.0000000000000000e+03 1.0000000000000000e+03
ITEM: ATOMS id x y z ix iy iz
1 -1.41528 1.85050 6.05741 0 0 0
2 -0.78838 2.61010 6.38216 0 0 0
3 -0.05087 2.37993 6.97148 0 0 0
4 0.50499 2.16413 7.68225 0 0 0
5 0.60372 1.47069 8.35756 0 0 0
6 1.12868 1.81080 9.18350 0 0 0
7 1.15794 1.94007 10.15901 0 0 0
8 1.20530 1.03990 10.60433 0 0 0
9 0.86493 0.80982 11.45787 0 0 0
10 1.37314 0.29550 12.13973 0 0 0
11 0.91342 0.35009 12.98134 0 0 0
12 0.26914 0.35998 13.72646 0 0 0
13 -0.02874 -0.32016 14.28837 0 0 0
14 0.11750 -1.04234 14.90236 0 0 0
15 0.21666 -0.30974 15.59386 0 0 0
16 0.14202 -0.11277 16.63756 0 0 0
17 0.54374 -0.12330 17.53496 0 0 0
18 1.20078 -0.56594 18.15441 0 0 0
19 1.39825 0.02550 18.91865 0 0 0
20 1.11180 -0.46296 19.80236 0 0 0
21 0.23548 -0.59724 20.13286 0 0 0
22 0.01182 -1.39267 20.71000 0 0 0
23 -0.54956 -1.58119 21.51016 0 0 0
24 0.02006 -1.92987 22.19926 0 0 0
25 -0.03821 -2.05318 23.17251 0 0 0
26 -0.41484 -2.36553 24.08011 0 0 0
27 -0.77714 -2.31926 25.01505 0 0 0
28 -1.49124 -2.27800 25.76127 0 0 0
29 -1.64718 -2.59936 26.61985 0 0 0
30 -1.96957 -2.65824 27.50943 0 0 0
31 -1.98247 -2.84173 28.43089 0 0 0
32 -2.03144 -2.14608 29.18685 0 0 0
33 -2.20333 -1.90119 30.15330 0 0 0
34 -2.66225 -1.53422 30.87741 0 0 0
35 -2.27221 -1.47857 31.75080 0 0 0
36 -1.79380 -1.95898 32.55508 0 0 0
37 -2.12229 -2.27143 33.45947 0 0 0
38 -2.31088 -2.14841 34.35386 0 0 0
39 -2.47619 -1.67006 35.19268 0 0 0
40 -2.79301 -1.62642 36.14761 0 0 0
41 -2.42314 -0.99230 36.84365 0 0 0
42 -2.42911 -0.53852 37.72161 0 0 0
43 -1.99503 0.39207 37.82343 0 0 0
44 -1.13597 0.45359 38.17990 0 0 0
45 -1.71405 0.44255 39.00016 0 0 0
46 -1.59697 0.43999 39.95801 0 0 0
47 -2.06038 0.78970 40.81523 0 0 0
48 -1.87928 1.02631 41.72058 0 0 0
49 -1.45245 1.06669 42.59585 0 0 0
50 -1.47102 1.38376 43.62465 0 0 0
51 -1.50755 1.29802 44.62808 0 0 0
52 -1.31391 1.05545 45.55934 0 0 0
53 -1.49083 0.82642 46.50413 0 0 0
54 -1.94091 0.54887 47.32650 0 0 0
55 -1.70325 -0.02430 48.07818 0 0 0
56 -1.68677 -0.25350 49.02646 0 0 0
57 -1.70557 -0.29981 50.09379 0 0 0
58 -2.22404 -0.55542 50.85002 0 0 0
59 -2.29580 0.02664 51.60223 0 0 0
60 -2.21217 -0.24401 52.53405 0 0 0
61 -1.76805 -0.09209 53.37170 0 0 0
62 -1.64381 0.12635 54.35838 0 0 0
63 -1.38546 0.16827 55.35007 0 0 0
64 -0.96462 -0.45484 56.06237 0 0 0
65 -1.42850 -0.52943 56.93302 0 0 0
66 -0.98308 -0.73059 57.76971 0 0 0
67 -0.78018 -0.47104 58.68068 0 0 0
68 -1.20649 -0.36673 59.59810 0 0 0
69 -1.10080 -0.56819 60.54949 0 0 0
70 -1.29791 -0.68118 61.52194 0 0 0
71 -1.01411 -1.08731 62.40004 0 0 0
72 -1.33888 -0.87570 63.29654 0 0 0
73 -1.28856 -0.94748 64.30672 0 0 0
74 -0.68539 -1.28502 65.07573 0 0 0
75 -0.66916 -0.91175 66.00749 0 0 0
76 -1.18139 -0.73349 66.81313 0 0 0
77 -0.80725 -0.91492 67.70395 0 0 0
78 -0.79725 -1.22005 68.63367 0 0 0
79 -0.50065 -1.43978 69.51690 0 0 0
80 -0.37993 -2.02139 70.27303 0 0 0
81 -0.20301 -2.00247 71.21232 0 0 0
82 -0.18338 -2.26042 72.25478 0 0 0
83 0.34576 -2.46565 73.00974 0 0 0
84 1.07442 -3.15217 73.00990 0 0 0
85 1.23150 -2.86073 73.99708 0 0 0
86 0.84929 -2.98711 75.02275 0 0 0
87 0.57501 -3.34149 75.86040 0 0 0
88 0.44131 -2.91053 76.69226 0 0 0
89 -0.15382 -2.71892 77.45058 0 0 0
90 0.06342 -2.96853 78.40089 0 0 0
91 0.86221 -2.89263 79.06671 0 0 0
92 1.24366 -3.10830 79.93503 0 0 0
93 1.54934 -2.74758 80.80656 0 0 0
94 1.50480 -2.43850 81.81658 0 0 0
95 1.33304 -3.04013 82.54818 0 0 0
96 1.46026 -2.99252 83.61434 0 0 0
97 1.27967 -2.84476 84.59842 0 0 0
98 1.30415 -2.82516 85.61859 0 0 0
99 0.95774 -3.46666 86.39484 0 0 0
100 1.37450 -3.72969 87.38096 0 0 0
101 1.22462 -3.85852 88.35630 0 0 0
102 1.99658 -3.65465 88.83031 0 0 0
103 2.73556 -3.32811 89.43925 0 0 0
104 3.50948 -2.88598 89.93851 0 0 0
105 4.44329 -2.34208 90.02637 0 0 0
106 5.10557 -2.27904 90.79633 0 0 0
107 5.92952 -2.19248 91.33803 0 0 0
108 6.57030 -2.48095 91.98581 0 0 0
109 7.45507 -2.23682 92.32204 0 0 0
110 8.19941 -2.03520 92.97565 0 0 0
111 9.02114 -1.64228 93.35556 0 0 0
112 9.90733 -1.02455 93.57279 0 0 0
113 10.49050 -0.84717 94.30943 0 0 0
114 10.97517 -0.37667 94.98314 0 0 0
115 11.94721 -0.14009 95.50067 0 0 0
116 12.64142 0.43583 96.01953 0 0 0
117 13.39215 0.32642 96.72248 0 0 0
118 13.90365 0.70513 97.38553 0 0 0
119 14.75155 1.11536 97.74905 0 0 0
120 15.30050 1.55115 98.53144 0 0 0
121 15.77155 2.21518 99.05613 0 0 0
122 16.75200 2.16312 99.33057 0 0 0
123 17.56380 1.67455 99.57602 0 0 0
124 18.08353 1.61015 100.44984 0 0 0
125 18.77834 2.29176 100.66900 0 0 0
126 19.74382 2.03794 101.01964 0 0 0
127 20.66904 1.94176 101.29432 0 0 0
128 21.23149 2.43753 101.99237 0 0 0
129 21.76797 2.47381 102.78671 0 0 0
130 22.33401 2.63743 103.55905 0 0 0
131 22.64876 3.03159 104.52722 0 0 0
132 22.77226 3.81373 105.02721 0 0 0
133 23.32323 3.54531 105.80673 0 0 0
134 24.02085 2.95137 106.10360 0 0 0
135 24.96334 2.59821 106.26125 0 0 0
136 25.63663 2.19938 106.85518 0 0 0
137 26.50360 1.79817 106.97253 0 0 0
138 27.18099 1.80736 107.75008 0 0 0
139 28.16963 1.76451 107.82233 0 0 0
140 28.97947 1.73377 108.37231 0 0 0
141 29.95139 1.58392 108.55369 0 0 0
142 30.50791 1.69020 109.35212 0 0 0
143 31.26682 1.69970 109.97809 0 0 0
144 32.22621 1.85228 110.18166 0 0 0
145 33.21332 1.95666 110.21951 0 0 0
146 34.27696 2.25981 110.18581 0 0 0
147 35.10985 1.92599 110.46419 0 0 0
148 35.64768 2.29430 111.13477 0 0 0
149 36.31621 2.05186 111.85518 0 0 0
150 37.04890 2.20085 112.43419 0 0 0
151 37.88744 2.72604 112.66092 0 0 0
152 38.62567 3.11593 113.21867 0 0 0
153 39.55303 3.25854 113.61600 0 0 0
154 40.55106 3.47023 113.99489 0 0 0
155 41.13152 3.65321 114.83819 0 0 0
156 41.94287 3.40505 115.53120 0 0 0
157 42.57241 3.80817 116.11481 0 0 0
158 43.34928 4.19383 116.61688 0 0 0
159 44.18832 3.99629 117.16972 0 0 0
160 45.05882 3.90135 117.58986 0 0 0
161 46.01330 3.94432 117.88988 0 0 0
162 46.96080 3.95560 118.11907 0 0 0
163 47.72249 3.38256 118.12561 0 0 0
164 47.87083 3.55364 119.14903 0 0 0
165 48.81311 3.89189 119.21962 0 0 0
166 49.64946 4.38085 119.65998 0 0 0
167 50.60148 4.44613 119.80677 0 0 0
168 51.47513 4.71088 120.27369 0 0 0
169 52.38507 4.80850 120.86722 0 0 0
170 53.09323 4.55164 121.52817 0 0 0
171 53.38399 4.61002 122.46288 0 0 0
172 54.03129 4.58188 123.16868 0 0 0
173 54.89076 4.78957 123.62910 0 0 0
174 55.59329 4.81916 124.23845 0 0 0
175 56.47707 4.62295 124.48787 0 0 0
176 57.21836 5.21379 124.60803 0 0 0
177 58.18749 5.27473 124.92359 0 0 0
178 59.12443 4.88563 124.82545 0 0 0
179 59.84150 4.67877 125.52354 0 0 0
180 60.67610 5.23000 125.79713 0 0 0
181 61.55949 5.22363 126.18534 0 0 0
182 62.38240 5.02759 126.65310 0 0 0
183 62.94033 5.04913 127.47825 0 0 0
184 63.81811 4.79110 127.82243 0 0 0
185 64.77704 4.60046 128.11805 0 0 0
186 65.70395 4.74836 128.45277 0 0 0
187 66.68086 4.94469 128.35489 0 0 0
188 66.93641 4.35373 129.16977 0 0 0
189 66.81520 4.30731 130.20256 0 0 0
190 67.59329 4.78094 130.61942 0 0 0
191 68.55861 4.72500 130.37235 0 0 0
192 69.27185 5.24186 130.88418 0 0 0
193 69.78180 5.61776 131.63213 0 0 0
194 70.54480 4.95303 131.55303 0 0 0
195 71.45481 4.75813 131.80149 0 0 0
196 72.29994 4.95402 132.34646 0 0 0