ITEM: TIMESTEP
0
ITEM: NUMBER OF ATOMS
101
ITEM: BOX BOUNDS pp pp pp
-1.0000000000000000e+03 1.0000000000000000e+03
-1.0000000000000000e+03 1.0000000000000000e+03
-1.0000000000000000e+03 1.0000000000000000e+03
ITEM: ATOMS id x y z ix iy iz
1 0.00000 0.00000 0.00000 0 0 0
2 0.00000 0.00000 1.00000 0 0 0
3 0.00000 -0.50000 1.86603 0 0 0
4 0.00000 0.00000 2.73205 0 0 0
5 0.00000 -0.50000 3.59808 0 0 0
6 0.00000 0.00000 4.46410 0 0 0
7 0.00000 -0.50000 5.33013 0 0 0
8 0.00000 0.00000 6.19615 0 0 0
9 0.00000 -0.50000 7.06218 0 0 0
10 0.00000 0.00000 7.92820 0 0 0
11 0.00000 -0.50000 8.79423 0 0 0
12 0.00000 0.00000 9.66025 0 0 0
13 0.00000 -0.50000 10.52628 0 0 0
14 0.00000 0.00000 11.39230 0 0 0
15 0.00000 -0.50000 12.25833 0 0 0
16 0.00000 0.00000 13.12436 0 0 0
17 0.00000 -0.50000 13.99038 0 0 0
18 0.00000 0.00000 14.85641 0 0 0
19 0.00000 -0.50000 15.72243 0 0 0
20 0.00000 0.00000 16.58846 0 0 0
21 0.00000 -0.50000 17.45448 0 0 0
22 0.00000 0.00000 18.32051 0 0 0
23 0.00000 -0.50000 19.18653 0 0 0
24 0.00000 0.00000 20.05256 0 0 0
25 0.00000 -0.50000 20.91858 0 0 0
26 0.00000 0.00000 21.78461 0 0 0
27 0.59107 -0.46903 22.44085 0 0 0
28 1.18214 -1.20334 22.77466 0 0 0
29 1.77321 -1.28141 23.57749 0 0 0
30 2.36428 -2.01572 23.91130 0 0 0
31 2.95534 -2.09379 24.71413 0 0 0
32 3.54641 -2.82810 25.04794 0 0 0
33 4.13748 -2.90617 25.85077 0 0 0
34 4.72855 -3.64047 26.18458 0 0 0
35 5.31962 -3.71854 26.98741 0 0 0
36 5.91069 -4.45285 27.32122 0 0 0
37 6.50176 -4.53092 28.12406 0 0 0
38 7.09283 -5.26523 28.45786 0 0 0
39 7.68389 -5.34330 29.26070 0 0 0
40 8.27496 -6.07761 29.59450 0 0 0
41 8.86603 -6.15568 30.39734 0 0 0
42 9.45710 -6.88999 30.73114 0 0 0
43 10.04817 -6.96806 31.53398 0 0 0
44 10.63924 -7.70237 31.86779 0 0 0
45 11.23031 -7.78044 32.67062 0 0 0
46 11.82138 -8.51475 33.00443 0 0 0
47 12.41244 -8.59282 33.80726 0 0 0
48 13.00351 -9.32713 34.14107 0 0 0
49 13.59458 -9.40520 34.94390 0 0 0
50 14.18565 -10.13951 35.27771 0 0 0
51 14.77672 -10.21758 36.08054 0 0 0
52 -0.93147 0.04157 22.14606 0 0 0
53 -1.86293 -0.10316 22.47986 0 0 0
54 -2.79440 0.11356 22.77210 0 0 0
55 -3.72586 -0.03116 23.10591 0 0 0
56 -4.65733 0.18556 23.39815 0 0 0
57 -5.58879 0.04083 23.73196 0 0 0
58 -6.52026 0.25756 24.02420 0 0 0
59 -7.45172 0.11283 24.35800 0 0 0
60 -8.38319 0.32955 24.65024 0 0 0
61 -9.31465 0.18483 24.98405 0 0 0
62 -10.24612 0.40155 25.27629 0 0 0
63 -11.17758 0.25682 25.61010 0 0 0
64 -12.10905 0.47355 25.90234 0 0 0
65 -13.04051 0.32882 26.23614 0 0 0
66 -13.97198 0.54554 26.52838 0 0 0
67 -14.90344 0.40082 26.86219 0 0 0
68 -15.83491 0.61754 27.15443 0 0 0
69 -16.76637 0.47281 27.48824 0 0 0
70 -17.69784 0.68954 27.78048 0 0 0
71 -18.62930 0.54481 28.11428 0 0 0
72 -19.56077 0.76153 28.40652 0 0 0
73 -20.49223 0.61681 28.74033 0 0 0
74 -21.42370 0.83353 29.03257 0 0 0
75 -22.35517 0.68880 29.36638 0 0 0
76 -23.28663 0.90553 29.65862 0 0 0
77 0.34040 0.92817 21.63418 0 0 0
78 0.68079 1.80721 21.96798 0 0 0
79 1.02119 2.53581 21.37362 0 0 0
80 1.36159 3.41484 21.70743 0 0 0
81 1.70198 4.14345 21.11306 0 0 0
82 2.04238 5.02248 21.44687 0 0 0
83 2.38277 5.75109 20.85251 0 0 0
84 2.72317 6.63012 21.18631 0 0 0
85 3.06357 7.35872 20.59195 0 0 0
86 3.40396 8.23776 20.92576 0 0 0
87 3.74436 8.96636 20.33139 0 0 0
88 4.08476 9.84540 20.66520 0 0 0
89 4.42515 10.57400 20.07084 0 0 0
90 4.76555 11.45304 20.40464 0 0 0
91 5.10595 12.18164 19.81028 0 0 0
92 5.44634 13.06067 20.14409 0 0 0
93 5.78674 13.78928 19.54972 0 0 0
94 6.12714 14.66831 19.88353 0 0 0
95 6.46753 15.39692 19.28917 0 0 0
96 6.80793 16.27595 19.62297 0 0 0
97 7.14832 17.00455 19.02861 0 0 0
98 7.48872 17.88359 19.36242 0 0 0
99 7.82912 18.61219 18.76805 0 0 0
100 8.16951 19.49123 19.10186 0 0 0
101 8.50991 20.21983 18.50750 0 0 0
ITEM: TIMESTEP
1000
ITEM: NUMBER OF ATOMS
101
ITEM: BOX BOUNDS pp pp pp
-1.0000000000000000e+03 1.0000000000000000e+03
-1.0000000000000000e+03 1.0000000000000000e+03
-1.0000000000000000e+03 1.0000000000000000e+03
ITEM: ATOMS id x y z ix iy iz
1 -0.81233 2.42698 5.44441 0 0 0
2 -0.23733 1.89031 4.79860 0 0 0
3 -0.71411 1.10634 4.55935 0 0 0
4 -1.34576 0.69843 5.17325 0 0 0
5 -1.97139 0.37286 5.86949 0 0 0
6 -2.96729 -0.01226 6.03480 0 0 0
7 -2.79778 -0.38910 6.97003 0 0 0
8 -2.70325 -1.20344 7.46890 0 0 0
9 -2.93002 -1.37694 8.46042 0 0 0
10 -3.05576 -0.72595 9.28813 0 0 0
11 -3.37141 -0.49264 10.21530 0 0 0
12 -3.57562 -0.91652 11.04083 0 0 0
13 -3.12288 -1.33414 11.88040 0 0 0
14 -3.66679 -1.96130 12.38620 0 0 0
15 -4.14725 -1.99210 13.23118 0 0 0
16 -3.86642 -1.64444 14.09445 0 0 0
17 -3.86332 -1.81144 15.12605 0 0 0
18 -3.03960 -1.91247 15.77762 0 0 0
19 -3.00108 -1.91092 16.72151 0 0 0
20 -2.87485 -1.69908 17.66035 0 0 0
21 -3.35825 -1.83118 18.54152 0 0 0
22 -3.02277 -1.61097 19.45902 0 0 0
23 -2.79959 -1.00083 20.19263 0 0 0
24 -2.28890 -0.15187 20.54971 0 0 0
25 -1.75488 -0.17836 21.38537 0 0 0
26 -1.37961 -0.12499 22.27532 0 0 0
27 -0.41676 -0.02743 22.27708 0 0 0
28 0.59231 -0.44490 22.31443 0 0 0
29 1.07722 -0.72187 23.01973 0 0 0
30 0.96482 -0.79110 24.07486 0 0 0
31 1.31336 -1.26283 24.88439 0 0 0
32 2.07470 -1.73832 25.29124 0 0 0
33 2.93109 -1.83704 25.60474 0 0 0
34 2.59856 -2.45246 26.26906 0 0 0
35 2.82551 -3.14581 26.83313 0 0 0
36 3.38225 -3.95120 26.83756 0 0 0
37 4.14100 -4.12144 27.48548 0 0 0
38 4.55486 -4.52472 28.34576 0 0 0
39 5.44814 -4.94438 28.43384 0 0 0
40 6.22588 -5.58391 28.71294 0 0 0
41 6.69868 -5.79806 29.46317 0 0 0
42 7.41155 -5.31418 29.98069 0 0 0
43 7.98269 -5.14335 30.86999 0 0 0
44 8.76726 -5.43073 31.23235 0 0 0
45 9.74146 -5.73007 31.41888 0 0 0
46 10.55781 -6.11228 31.73708 0 0 0
47 11.50749 -6.31221 31.94975 0 0 0
48 12.16092 -7.11839 32.03414 0 0 0
49 11.86141 -7.22368 32.94241 0 0 0
50 11.56542 -6.33398 33.24730 0 0 0
51 11.80730 -5.80055 34.00475 0 0 0
52 -2.40674 0.06861 22.14952 0 0 0
53 -3.17869 0.54475 21.58536 0 0 0
54 -3.97720 1.03696 21.58069 0 0 0
55 -4.68693 0.51937 21.21906 0 0 0
56 -5.50609 0.05422 21.47557 0 0 0
57 -6.03737 0.65908 22.11390 0 0 0
58 -6.16701 0.85260 23.13382 0 0 0
59 -6.60412 0.88899 23.99578 0 0 0
60 -7.27741 1.03272 24.64400 0 0 0
61 -7.71973 1.36510 23.78716 0 0 0
62 -8.42310 1.43237 24.49408 0 0 0
63 -9.37718 1.44634 24.17686 0 0 0
64 -9.34069 1.77696 25.12354 0 0 0
65 -9.67980 1.95590 25.98323 0 0 0
66 -10.64549 2.14037 26.34492 0 0 0
67 -11.65624 1.94892 26.15854 0 0 0
68 -12.31725 1.52939 25.59985 0 0 0
69 -12.72635 0.64649 25.77122 0 0 0
70 -13.10710 0.52763 26.64912 0 0 0
71 -14.01683 0.14815 26.38275 0 0 0
72 -14.83725 -0.30681 26.63947 0 0 0
73 -14.35861 -0.02996 27.40373 0 0 0
74 -14.37222 0.86881 27.90925 0 0 0
75 -14.92970 1.22078 28.58317 0 0 0
76 -15.33720 1.91290 28.05441 0 0 0
77 -1.05831 0.76674 22.29972 0 0 0
78 -0.75856 1.59093 21.83420 0 0 0
79 -0.60407 2.39467 21.23767 0 0 0
80 0.26194 2.71021 21.16755 0 0 0
81 0.14252 3.62872 20.90143 0 0 0
82 -0.35026 4.43684 21.28291 0 0 0
83 -0.63747 5.37558 21.60616 0 0 0
84 -0.11305 6.01215 21.06228 0 0 0
85 0.38585 6.53588 20.33909 0 0 0
86 1.25130 7.09003 20.06726 0 0 0
87 1.94182 7.90222 19.85494 0 0 0
88 1.78136 8.80855 20.16633 0 0 0
89 2.71324 8.99930 20.39051 0 0 0
90 2.57692 9.92091 20.64175 0 0 0
91 2.80425 10.86101 20.41231 0 0 0
92 3.37260 11.67207 20.61476 0 0 0
93 3.28484 12.34329 19.92512 0 0 0
94 3.98492 12.96459 19.58660 0 0 0
95 4.12904 13.84438 19.27629 0 0 0
96 5.00137 14.16060 18.87661 0 0 0
97 5.10983 15.07231 19.20716 0 0 0
98 5.93532 15.45790 19.47884 0 0 0
99 6.55670 15.72396 20.16558 0 0 0
100 6.03056 15.65423 20.94767 0 0 0
101 5.67049 16.28776 21.75447 0 0 0
ITEM: TIMESTEP
2000
ITEM: NUMBER OF ATOMS
101
ITEM: BOX BOUNDS pp pp pp
-1.0000000000000000e+03 1.0000000000000000e+03
-1.0000000000000000e+03 1.0000000000000000e+03
-1.0000000000000000e+03 1.0000000000000000e+03
ITEM: ATOMS id x y z ix iy iz
1 -0.03604 3.77310 7.19681 0 0 0
2 -0.64329 3.15361 6.84849 0 0 0
3 -1.55289 3.22819 7.18111 0 0 0
4 -2.39230 2.72861 7.58358 0 0 0
5 -1.87735 2.65779 8.39540 0 0 0
6 -2.47737 2.41330 9.12943 0 0 0
7 -2.81504 1.95865 9.98963 0 0 0
8 -3.80174 2.00827 9.95013 0 0 0
9 -3.97628 1.84202 10.95973 0 0 0
10 -3.56079 1.82476 11.88432 0 0 0
11 -3.81605 1.12429 12.57660 0 0 0
12 -3.32620 0.86741 13.44834 0 0 0
13 -2.66565 0.48642 14.06619 0 0 0
14 -2.63950 -0.17525 14.80641 0 0 0
15 -2.22190 -0.91647 15.35430 0 0 0
16 -1.27322 -0.91934 15.71917 0 0 0
17 -0.75567 -0.77667 16.49309 0 0 0
18 -0.29020 0.01551 16.82680 0 0 0
19 -0.15816 0.68091 17.52246 0 0 0
20 -0.29195 0.71489 18.59602 0 0 0
21 -1.00229 0.55217 19.27634 0 0 0
22 -1.78783 0.39171 19.83165 0 0 0
23 -2.09607 -0.33018 20.57079 0 0 0
24 -1.90932 -0.28568 21.57070 0 0 0
25 -1.43781 -0.43247 22.42884 0 0 0
26 -0.72737 0.29623 22.39015 0 0 0
27 -0.14231 -0.52485 22.32528 0 0 0
28 0.63815 -1.17679 22.61473 0 0 0
29 1.11055 -1.81927 23.08440 0 0 0
30 2.03401 -1.91070 23.34280 0 0 0
31 3.02133 -1.96560 23.41432 0 0 0
32 3.42275 -2.42696 24.19070 0 0 0
33 4.12694 -3.13344 24.35628 0 0 0
34 5.13389 -3.13423 24.57015 0 0 0
35 6.00125 -3.35091 24.08773 0 0 0
36 6.09020 -3.28055 25.03467 0 0 0
37 5.59685 -3.00723 25.78825 0 0 0
38 5.37746 -2.88271 26.78262 0 0 0
39 6.27644 -2.98357 27.10214 0 0 0
40 6.89565 -3.38797 27.73090 0 0 0
41 6.67118 -3.54632 28.69246 0 0 0
42 6.84490 -4.51960 28.87450 0 0 0
43 7.32245 -5.00457 29.58225 0 0 0
44 7.93471 -5.68645 29.45071 0 0 0
45 8.26506 -6.59104 29.44482 0 0 0
46 8.97760 -6.62325 30.09161 0 0 0
47 8.40967 -7.09432 30.78935 0 0 0
48 8.69812 -7.80931 31.36515 0 0 0
49 9.45754 -7.73152 31.92038 0 0 0
50 10.25423 -7.14174 32.22265 0 0 0
51 10.83906 -6.56094 31.60721 0 0 0
52 -1.68046 0.71858 22.53126 0 0 0
53 -2.26010 0.03529 22.74090 0 0 0
54 -3.05731 -0.23960 23.20745 0 0 0
55 -4.01167 -0.04313 22.90088 0 0 0
56 -4.82893 0.51144 23.25480 0 0 0
57 -5.52778 0.07936 22.73823 0 0 0
58 -6.45440 0.37043 23.22242 0 0 0
59 -7.41656 0.20440 23.15657 0 0 0
60 -7.62048 1.14079 22.99542 0 0 0
61 -8.30598 1.59068 22.53094 0 0 0
62 -9.03535 2.13672 22.18474 0 0 0
63 -10.00437 2.22038 22.25774 0 0 0
64 -10.66985 1.61501 22.70255 0 0 0
65 -11.31841 0.87573 22.71860 0 0 0
66 -12.04980 0.79759 23.35471 0 0 0
67 -12.80226 1.06286 23.94590 0 0 0
68 -13.12203 1.52757 24.83915 0 0 0
69 -13.18779 1.41363 25.81034 0 0 0
70 -12.74556 0.90426 26.42280 0 0 0
71 -12.35076 1.60501 26.96659 0 0 0
72 -11.64992 1.79575 27.62179 0 0 0
73 -11.25576 0.82724 27.57020 0 0 0
74 -11.44244 -0.18497 27.30916 0 0 0
75 -11.60352 -0.30063 26.44364 0 0 0
76 -12.28275 -0.97509 26.43792 0 0 0
77 -0.26820 1.08386 22.88712 0 0 0
78 -0.39338 2.09007 22.86056 0 0 0
79 -0.75339 2.91980 22.38625 0 0 0
80 -1.03515 3.67712 21.78005 0 0 0
81 -1.38991 3.79920 20.89369 0 0 0
82 -1.01073 4.67102 20.48173 0 0 0
83 -1.41837 5.57023 20.74737 0 0 0
84 -0.74591 6.22555 20.53097 0 0 0
85 -0.89049 7.17553 20.34298 0 0 0
86 -0.36710 7.86893 19.92960 0 0 0
87 0.00218 8.79399 19.93892 0 0 0
88 0.01408 9.79126 20.00583 0 0 0
89 0.89608 10.13054 20.30951 0 0 0
90 1.04016 10.88795 20.84942 0 0 0
91 1.69638 11.30849 21.37170 0 0 0
92 2.10804 12.18775 21.23805 0 0 0
93 2.73372 11.98056 20.58185 0 0 0
94 3.21180 11.69800 19.76049 0 0 0
95 3.36481 12.66539 19.57683 0 0 0
96 3.72530 13.28432 20.16397 0 0 0
97 4.45470 13.93517 20.16019 0 0 0
98 5.37219 14.30431 20.10100 0 0 0
99 5.43468 15.03579 19.50197 0 0 0
100 5.25477 15.21411 18.56860 0 0 0
101 5.25074 15.55874 17.70790 0 0 0
ITEM: TIMESTEP
3000
ITEM: NUMBER OF ATOMS
101
ITEM: BOX BOUNDS pp pp pp
-1.0000000000000000e+03 1.0000000000000000e+03
-1.0000000000000000e+03 1.0000000000000000e+03
-1.0000000000000000e+03 1.0000000000000000e+03
ITEM: ATOMS id x y z ix iy iz
1 -0.79051 0.22998 5.31836 0 0 0
2 -1.17057 -0.54796 5.74199 0 0 0
3 -1.46802 -0.15802 6.62773 0 0 0
4 -2.07175 0.12145 7.30062 0 0 0
5 -2.67147 0.84226 7.43271 0 0 0
6 -2.40988 1.09479 8.37558 0 0 0
7 -2.38268 1.35161 9.43035 0 0 0
8 -1.76686 0.62134 9.60487 0 0 0
9 -1.23605 0.19955 10.40596 0 0 0
10 -1.50122 0.33407 11.39040 0 0 0
11 -1.57985 -0.58727 11.42284 0 0 0
12 -1.46229 -0.30600 12.39034 0 0 0
13 -2.23546 -0.11690 12.99042 0 0 0
14 -2.61412 0.01748 13.89250 0 0 0
15 -2.09927 0.46122 14.61273 0 0 0
16 -1.73275 0.60581 15.52441 0 0 0
17 -1.47259 0.95277 16.44110 0 0 0
18 -0.76011 0.36160 16.75547 0 0 0
19 -0.29356 1.00219 17.39180 0 0 0
20 -0.14952 1.48407 18.25207 0 0 0
21 -0.38610 1.00821 19.08840 0 0 0
22 -0.77453 0.42978 19.78119 0 0 0
23 -0.97818 -0.06700 20.54071 0 0 0
24 -1.42255 -0.38312 21.36231 0 0 0
25 -0.75434 -0.01287 21.89054 0 0 0
26 -1.05109 0.21042 22.80220 0 0 0
27 -0.14581 -0.14845 23.16665 0 0 0
28 0.18618 -1.08427 23.18675 0 0 0
29 1.13685 -1.18052 23.21820 0 0 0
30 1.33090 -2.04658 23.60060 0 0 0
31 2.18005 -2.04755 24.08771 0 0 0
32 3.18390 -1.86972 24.23265 0 0 0
33 3.90741 -2.51001 24.74042 0 0 0
34 4.68371 -1.82228 24.71254 0 0 0
35 4.94707 -2.72297 24.43891 0 0 0
36 5.76860 -3.24455 24.26075 0 0 0
37 5.94557 -4.16529 24.58349 0 0 0
38 5.40586 -4.92413 24.34706 0 0 0
39 5.37450 -5.21608 25.27051 0 0 0
40 5.91875 -5.58700 25.96567 0 0 0
41 6.51064 -5.33379 26.75870 0 0 0
42 7.31394 -5.79318 27.03931 0 0 0
43 7.23622 -4.98831 27.56514 0 0 0
44 7.01568 -5.54617 28.45721 0 0 0
45 7.71607 -5.49452 29.14833 0 0 0
46 7.33354 -5.68575 29.98496 0 0 0
47 6.48378 -5.84188 30.57436 0 0 0
48 6.63422 -5.10229 31.18498 0 0 0
49 6.62703 -4.86663 32.14494 0 0 0
50 5.98614 -5.46147 32.62043 0 0 0
51 6.34029 -5.60869 33.56947 0 0 0
52 -1.98176 -0.27765 23.00290 0 0 0
53 -2.19622 0.48463 22.34152 0 0 0
54 -2.97485 0.32554 21.69549 0 0 0
55 -3.61400 -0.27322 21.21233 0 0 0
56 -4.29381 -0.80667 20.64297 0 0 0
57 -5.21512 -1.16127 20.55116 0 0 0
58 -5.14215 -0.76654 21.41901 0 0 0
59 -5.72831 -0.86588 22.23577 0 0 0
60 -6.07584 -1.42870 22.92153 0 0 0
61 -7.01255 -1.17608 23.00890 0 0 0
62 -7.71180 -0.59375 23.30596 0 0 0
63 -7.81568 0.23884 23.73968 0 0 0
64 -8.29865 0.83244 24.26709 0 0 0
65 -8.67976 1.64842 23.96305 0 0 0
66 -9.15907 2.54460 24.02323 0 0 0
67 -9.11817 3.43455 23.73005 0 0 0
68 -9.21543 4.39806 23.76959 0 0 0
69 -9.41391 4.53998 24.68067 0 0 0
70 -10.38096 4.73400 25.10147 0 0 0
71 -11.20518 4.34759 25.41004 0 0 0
72 -12.04457 4.45932 24.88744 0 0 0
73 -12.82110 3.97189 25.24302 0 0 0
74 -13.43072 4.30721 25.91221 0 0 0
75 -13.26245 3.87474 26.74553 0 0 0
76 -13.70269 3.35544 27.39706 0 0 0
77 -0.85768 1.06190 22.47354 0 0 0
78 -0.70523 1.50370 21.67928 0 0 0
79 -0.52399 1.35042 20.68736 0 0 0
80 -0.40670 2.26933 20.42000 0 0 0
81 0.40152 2.76169 20.46534 0 0 0
82 0.41541 3.74825 20.62066 0 0 0
83 0.71724 4.64097 20.85101 0 0 0
84 1.05221 5.50323 21.23422 0 0 0
85 0.91242 6.22075 21.86863 0 0 0
86 0.09701 6.59613 22.16100 0 0 0
87 0.53863 7.13340 22.84269 0 0 0
88 1.23941 7.69427 22.47376 0 0 0
89 1.21040 8.70659 22.77156 0 0 0
90 0.89335 9.64005 22.82550 0 0 0
91 0.94152 10.46472 22.36643 0 0 0
92 1.72342 10.68400 22.87421 0 0 0
93 2.56653 11.27400 22.71759 0 0 0
94 2.20115 12.22133 22.67977 0 0 0
95 2.40655 12.59467 21.77858 0 0 0
96 2.96213 13.46042 21.77657 0 0 0
97 3.67211 14.10247 22.05367 0 0 0
98 4.58051 14.01194 21.78368 0 0 0
99 5.37618 13.89175 21.18009 0 0 0
100 6.24991 14.31693 21.08441 0 0 0
101 6.51389 14.01881 20.16412 0 0 0
ITEM: TIMESTEP
4000
ITEM: NUMBER OF ATOMS
101
ITEM: BOX BOUNDS pp pp pp
-1.0000000000000000e+03 1.0000000000000000e+03
-1.0000000000000000e+03 1.0000000000000000e+03
-1.0000000000000000e+03 1.0000000000000000e+03
ITEM: ATOMS id x y z ix iy iz
1 -2.15793 1.18682 8.95479 0 0 0
2 -2.81938 0.51727 8.52869 0 0 0
3 -2.77898 -0.36535 8.85300 0 0 0
4 -2.40849 -1.09390 9.45123 0 0 0
5 -2.47503 -0.37868 10.14281 0 0 0
6 -1.77869 -0.11048 10.68688 0 0 0
7 -1.04960 0.05230 11.44042 0 0 0
8 -0.65566 -0.43514 12.15960 0 0 0
9 -0.20795 0.30466 12.65367 0 0 0
10 -0.82202 0.21737 13.49865 0 0 0
11 -1.23949 -0.81304 13.54865 0 0 0
12 -1.44829 -1.18899 14.44751 0 0 0
13 -1.95219 -1.56596 15.18130 0 0 0
14 -1.93308 -2.02479 15.99794 0 0 0
15 -1.06132 -1.62166 16.20734 0 0 0
16 -0.17802 -1.23627 16.10281 0 0 0
17 -0.15204 -0.79868 16.95301 0 0 0
18 -1.00203 -0.35216 17.54427 0 0 0
19 -1.63253 0.43291 17.48806 0 0 0
20 -1.65380 0.01161 18.35969 0 0 0
21 -2.40590 -0.40109 18.85593 0 0 0
22 -1.64791 -0.70492 19.51881 0 0 0
23 -0.79138 -0.37449 19.70714 0 0 0
24 -0.96428 -0.06192 20.66455 0 0 0
25 0.01293 0.22176 20.88941 0 0 0
26 0.51033 0.62418 21.65789 0 0 0
27 1.19613 0.85422 22.24034 0 0 0
28 0.60892 0.43834 22.85258 0 0 0
29 1.02614 0.84213 23.62822 0 0 0
30 1.51057 1.50872 24.21987 0 0 0
31 1.46357 1.66872 25.18090 0 0 0
32 2.28029 1.29499 25.66858 0 0 0
33 3.19103 1.07753 25.49763 0 0 0
34 3.89167 1.69263 25.17593 0 0 0
35 4.91222 1.80107 25.09680 0 0 0
36 4.75904 0.80892 25.07692 0 0 0
37 4.54221 -0.15432 24.88129 0 0 0
38 3.63720 -0.27743 25.15063 0 0 0
39 3.49398 -1.11249 25.53126 0 0 0
40 3.75859 -2.20042 25.90040 0 0 0
41 4.71537 -2.59220 25.74312 0 0 0
42 4.85912 -3.44738 26.36175 0 0 0
43 4.60124 -4.09932 27.05701 0 0 0
44 4.82421 -4.96089 27.61969 0 0 0
45 4.58954 -5.81293 27.80959 0 0 0
46 4.42744 -6.06154 28.75925 0 0 0
47 5.06692 -6.13790 29.58094 0 0 0
48 5.33516 -7.09768 29.68068 0 0 0
49 5.35646 -8.05704 30.15729 0 0 0
50 4.48752 -8.50889 29.93441 0 0 0
51 3.59988 -8.33627 30.36277 0 0 0
52 -0.10425 -0.09606 21.92408 0 0 0
53 -1.11630 -0.02170 21.91688 0 0 0
54 -1.41881 -0.49188 22.75508 0 0 0
55 -1.98882 -1.24796 22.90327 0 0 0
56 -2.61164 -1.09569 23.60857 0 0 0
57 -3.56662 -1.38249 23.54600 0 0 0
58 -3.89505 -1.66942 22.68963 0 0 0
59 -4.53517 -1.31756 21.99091 0 0 0
60 -4.57758 -0.72149 22.77419 0 0 0
61 -5.06694 0.12094 22.80180 0 0 0
62 -6.03234 -0.02846 22.76909 0 0 0
63 -6.41662 0.76345 22.50496 0 0 0
64 -7.09812 1.00024 21.86306 0 0 0
65 -8.03221 1.01779 22.30765 0 0 0
66 -8.94795 1.37562 22.09207 0 0 0
67 -9.86473 1.68695 22.28388 0 0 0
68 -10.05428 2.27814 23.10256 0 0 0
69 -10.86221 2.16017 23.64932 0 0 0
70 -11.45785 2.91395 23.95546 0 0 0
71 -11.58867 3.20677 24.84016 0 0 0
72 -11.95555 3.61730 25.64222 0 0 0
73 -11.68501 4.47090 25.74496 0 0 0
74 -11.73593 5.46952 25.98272 0 0 0
75 -11.47418 5.59645 25.05605 0 0 0
76 -11.04281 6.37091 24.86007 0 0 0
77 0.53298 1.35136 20.97148 0 0 0
78 0.11095 2.19878 20.67894 0 0 0
79 0.39268 3.12382 20.40440 0 0 0
80 0.54920 3.81492 21.10626 0 0 0
81 0.28699 4.27570 22.00216 0 0 0
82 0.49235 5.01646 21.43299 0 0 0
83 0.13276 5.90238 21.33631 0 0 0
84 0.16656 5.78010 22.23817 0 0 0
85 0.86611 6.38094 22.51940 0 0 0
86 1.56641 6.99885 22.90462 0 0 0
87 2.42940 7.42783 23.03547 0 0 0
88 3.45539 7.25692 23.15210 0 0 0
89 3.14223 7.98956 22.55583 0 0 0
90 3.19295 8.93559 22.74545 0 0 0
91 2.96797 10.08848 22.88390 0 0 0
92 3.75548 10.55571 23.37119 0 0 0
93 3.12335 11.14979 23.90697 0 0 0
94 3.56849 11.97429 24.33734 0 0 0
95 4.17873 12.75416 24.50470 0 0 0
96 4.67521 13.04387 23.69779 0 0 0
97 5.57870 13.29146 23.85991 0 0 0
98 6.47550 13.15443 23.66843 0 0 0
99 6.91159 13.08912 22.78799 0 0 0
100 7.13029 14.00238 22.53237 0 0 0
101 8.06776 13.92407 22.81879 0 0 0
ITEM: TIMESTEP
5000
ITEM: NUMBER OF ATOMS
101
ITEM: BOX BOUNDS pp pp pp
-1.0000000000000000e+03 1.0000000000000000e+03
-1.0000000000000000e+03 1.0000000000000000e+03
-1.0000000000000000e+03 1.0000000000000000e+03
ITEM: ATOMS id x y z ix iy iz
1 0.40658 1.59022 11.09052 0 0 0
2 0.15647 1.12290 11.83266 0 0 0
3 -0.13522 0.30181 11.36480 0 0 0
4 0.03646 -0.15688 12.20264 0 0 0
5 0.68257 -0.86421 12.08575 0 0 0
6 0.53137 -1.58368 12.67701 0 0 0
7 0.90323 -1.19635 13.43302 0 0 0
8 1.49750 -0.78485 14.01476 0 0 0
9 1.92020 -1.20909 14.74954 0 0 0
10 1.61059 -0.20994 15.01967 0 0 0
11 0.63038 -0.08443 15.11932 0 0 0
12 0.07740 -0.68361 15.63944 0 0 0
13 0.80727 -1.09014 16.14896 0 0 0
14 1.27645 -0.20929 16.46709 0 0 0
15 1.06974 -0.87096 17.16697 0 0 0
16 1.09907 -0.09106 17.75949 0 0 0
17 0.42240 0.39832 17.20151 0 0 0
18 -0.09917 0.58742 16.35942 0 0 0
19 -0.50633 0.17305 17.17497 0 0 0
20 -0.17959 0.19318 18.11605 0 0 0
21 -0.49156 -0.80125 18.26416 0 0 0
22 -0.46631 -0.13642 19.03336 0 0 0
23 -0.59471 0.28902 19.95744 0 0 0
24 -0.79899 0.13984 20.96056 0 0 0
25 -1.20009 0.26694 21.81952 0 0 0
26 -1.22962 1.17910 21.73741 0 0 0
27 -0.83517 1.99145 22.16384 0 0 0
28 0.01229 1.80883 22.59765 0 0 0
29 -0.08400 0.88610 22.99314 0 0 0
30 0.88816 0.95363 23.08722 0 0 0
31 1.85628 0.79792 23.21868 0 0 0
32 2.61264 0.35835 23.62841 0 0 0
33 3.59873 0.32643 23.58265 0 0 0
34 4.44751 0.01291 23.80481 0 0 0
35 5.14038 -0.34825 24.40380 0 0 0
36 5.22665 -0.23317 25.35226 0 0 0
37 6.12580 -0.58672 25.01278 0 0 0
38 6.03202 -1.52326 24.70648 0 0 0
39 6.22468 -1.47779 25.66655 0 0 0
40 6.67917 -2.33472 25.80435 0 0 0
41 7.04476 -3.18254 25.50891 0 0 0
42 6.15878 -3.54807 25.69099 0 0 0
43 5.27586 -3.11905 25.66332 0 0 0
44 4.40843 -2.94764 26.06384 0 0 0
45 4.62059 -3.96893 25.97763 0 0 0
46 4.71968 -4.27455 26.85025 0 0 0
47 5.03182 -4.60490 27.76123 0 0 0
48 4.09171 -5.02113 27.67804 0 0 0
49 3.48542 -4.33010 27.73819 0 0 0
50 4.06890 -3.98790 28.41556 0 0 0
51 4.38252 -4.43775 29.21865 0 0 0
52 -2.13846 0.92068 22.02592 0 0 0
53 -2.26214 0.12715 22.47269 0 0 0
54 -2.15808 -0.54263 23.13476 0 0 0
55 -2.64704 -1.25471 22.63127 0 0 0
56 -3.41819 -1.79951 22.92489 0 0 0
57 -3.58594 -1.41569 23.84824 0 0 0
58 -3.34793 -0.49350 23.55971 0 0 0
59 -3.16853 0.37320 23.93508 0 0 0
60 -3.22906 0.63253 23.05356 0 0 0
61 -4.12196 0.77783 22.50755 0 0 0
62 -4.96057 1.20977 22.31368 0 0 0
63 -5.66147 0.81062 21.71847 0 0 0
64 -6.18953 0.49789 20.87703 0 0 0
65 -6.36699 1.48516 20.87544 0 0 0
66 -7.28610 1.68930 21.02658 0 0 0
67 -7.75903 2.56815 20.92835 0 0 0
68 -8.67535 2.85363 20.99982 0 0 0
69 -8.97413 3.34324 21.74144 0 0 0
70 -9.09968 4.23239 22.00891 0 0 0
71 -9.86378 4.88504 22.23683 0 0 0
72 -10.63457 5.56434 22.66962 0 0 0
73 -10.92430 6.50831 22.76467 0 0 0
74 -10.75331 7.36659 23.18185 0 0 0
75 -11.69328 7.25263 23.41715 0 0 0
76 -11.72482 8.09249 23.91994 0 0 0
77 -1.75732 1.90945 21.35313 0 0 0
78 -1.86775 2.80896 21.90210 0 0 0
79 -1.30735 3.25387 22.60162 0 0 0
80 -0.38205 3.65764 22.71142 0 0 0
81 -0.11728 4.48851 22.09902 0 0 0
82 0.59719 5.13946 22.23120 0 0 0
83 1.41713 5.86251 22.38507 0 0 0
84 0.73707 6.44636 22.04205 0 0 0
85 1.31826 7.21835 21.88123 0 0 0
86 1.68597 7.57712 22.82499 0 0 0
87 1.31498 8.36020 23.17705 0 0 0
88 1.31706 9.31564 23.15291 0 0 0
89 1.20630 10.31853 22.89689 0 0 0
90 1.71839 10.58775 23.67268 0 0 0
91 2.23266 9.77521 23.71576 0 0 0
92 2.86519 10.66627 23.60569 0 0 0
93 3.48162 10.60199 24.37755 0 0 0
94 4.18960 11.25199 24.71766 0 0 0
95 4.81460 11.32100 24.00753 0 0 0
96 5.69558 11.69007 24.40765 0 0 0
97 6.06669 11.92852 25.26372 0 0 0
98 6.68699 12.71051 25.16531 0 0 0
99 6.79037 13.50202 25.71361 0 0 0
100 6.93094 14.38328 25.90568 0 0 0
101 6.44767 14.33140 26.75783 0 0 0
ITEM: TIMESTEP
6000
ITEM: NUMBER OF ATOMS
101
ITEM: BOX BOUNDS pp pp pp
-1.0000000000000000e+03 1.0000000000000000e+03
-1.0000000000000000e+03 1.0000000000000000e+03
-1.0000000000000000e+03 1.0000000000000000e+03
ITEM: ATOMS id x y z ix iy iz
1 0.50841 -1.61184 13.77526 0 0 0
2 -0.30785 -1.28436 13.40800 0 0 0
3 -0.04954 -1.37716 12.48507 0 0 0
4 0.57096 -2.18247 12.18378 0 0 0
5 0.83143 -2.94608 12.79706 0 0 0
6 1.63560 -3.40324 12.55535 0 0 0
7 2.50829 -3.03152 12.34757 0 0 0
8 2.47853 -2.77014 13.33081 0 0 0
9 2.34780 -2.13685 14.07991 0 0 0
10 2.57835 -2.01016 15.08502 0 0 0
11 2.41007 -1.06740 15.32739 0 0 0
12 3.06371 -0.54194 15.80585 0 0 0
13 3.79131 -0.99188 16.17994 0 0 0
14 4.06073 -1.79310 16.66579 0 0 0
15 3.57205 -1.66383 17.46917 0 0 0
16 3.46622 -1.07780 18.24198 0 0 0
17 2.99859 -0.35280 17.72455 0 0 0
18 2.43404 0.27705 18.08986 0 0 0
19 2.31007 1.18089 17.87933 0 0 0
20 2.17784 2.12497 17.97155 0 0 0
21 1.64790 2.10378 18.87503 0 0 0
22 1.20699 1.74862 19.71899 0 0 0
23 1.70207 1.07952 20.22202 0 0 0
24 0.81774 1.06424 20.62345 0 0 0
25 0.71454 1.06928 21.58001 0 0 0
26 -0.23892 1.22699 21.71901 0 0 0
27 -0.42628 1.96007 22.31952 0 0 0
28 0.37463 1.83850 22.85308 0 0 0
29 1.08926 1.64556 23.48290 0 0 0
30 1.95862 2.10541 23.79359 0 0 0
31 2.38858 1.20667 23.89399 0 0 0
32 3.17808 1.70785 24.40420 0 0 0
33 3.53244 2.29052 25.06201 0 0 0
34 4.33009 2.33873 24.40752 0 0 0
35 4.24228 1.33137 24.43277 0 0 0
36 4.01790 0.32553 24.78367 0 0 0
37 4.35166 -0.52832 24.45339 0 0 0
38 4.55542 -1.35789 24.93938 0 0 0
39 4.77970 -1.69580 25.82614 0 0 0
40 5.68304 -1.76659 25.87558 0 0 0
41 6.12269 -1.63629 26.80312 0 0 0
42 6.35186 -1.50977 27.81929 0 0 0
43 5.90655 -2.24022 28.21031 0 0 0
44 4.96364 -2.64101 27.93017 0 0 0
45 4.73482 -3.55447 27.57814 0 0 0
46 3.97072 -4.18146 27.37506 0 0 0
47 2.99770 -4.36871 26.93067 0 0 0
48 2.31700 -4.05861 26.26461 0 0 0
49 2.08618 -3.13877 26.26842 0 0 0
50 3.00579 -3.22309 26.20686 0 0 0
51 3.70601 -2.84235 26.75095 0 0 0
52 -0.95733 0.66442 22.07489 0 0 0
53 -1.70232 0.51071 21.52178 0 0 0
54 -1.35505 -0.39463 21.80973 0 0 0
55 -1.90337 -0.92646 22.36788 0 0 0
56 -2.77765 -0.90908 22.71268 0 0 0
57 -3.01326 -0.01302 23.02820 0 0 0
58 -3.93309 -0.21643 22.90905 0 0 0
59 -4.44355 -0.93535 22.50828 0 0 0
60 -4.74361 -1.10958 21.59605 0 0 0
61 -5.68748 -0.90067 21.69276 0 0 0
62 -5.37756 0.10742 21.60578 0 0 0
63 -5.70141 1.06426 21.47847 0 0 0
64 -6.26505 1.60670 22.05692 0 0 0
65 -6.38394 2.51354 22.23903 0 0 0
66 -6.93198 3.29299 22.44324 0 0 0
67 -6.68522 4.35376 22.44272 0 0 0
68 -6.69774 4.61900 21.47802 0 0 0
69 -7.53896 4.33353 21.75132 0 0 0
70 -7.94451 3.61380 22.35891 0 0 0
71 -8.98251 3.78016 22.16878 0 0 0
72 -8.89258 4.73718 21.90572 0 0 0
73 -9.54264 5.52681 21.86571 0 0 0
74 -8.74891 6.21637 21.86406 0 0 0
75 -9.12086 7.16783 22.08870 0 0 0
76 -9.60688 6.61551 22.71408 0 0 0
77 -0.54372 1.71769 20.81980 0 0 0
78 -0.24295 2.60773 20.66763 0 0 0
79 -1.13817 3.01669 21.08302 0 0 0
80 -1.15344 3.67999 21.79286 0 0 0
81 -0.41070 3.97304 22.34764 0 0 0
82 -0.04214 4.79921 22.73599 0 0 0
83 -0.73361 5.27171 23.19215 0 0 0
84 -0.08185 5.55176 23.86059 0 0 0
85 0.76616 6.00569 23.55979 0 0 0
86 1.07993 6.77201 24.04826 0 0 0
87 1.58350 7.53894 24.04989 0 0 0
88 1.89864 8.14220 24.67864 0 0 0
89 2.74480 8.56188 24.75475 0 0 0
90 3.63794 8.46261 24.29532 0 0 0
91 4.51185 8.93656 24.29105 0 0 0
92 4.80859 9.66043 24.94235 0 0 0
93 5.60747 10.02102 24.63482 0 0 0
94 6.43266 10.44162 24.63320 0 0 0
95 6.11901 11.47750 24.77954 0 0 0
96 5.87023 12.13390 25.43702 0 0 0
97 6.55271 12.82527 25.20639 0 0 0
98 7.27934 13.27948 25.48119 0 0 0
99 7.74007 13.49676 26.26319 0 0 0
100 7.79185 13.60678 27.20903 0 0 0
101 6.93831 14.02420 27.48930 0 0 0
ITEM: TIMESTEP
7000
ITEM: NUMBER OF ATOMS
101
ITEM: BOX BOUNDS pp pp pp
-1.0000000000000000e+03 1.0000000000000000e+03
-1.0000000000000000e+03 1.0000000000000000e+03
-1.0000000000000000e+03 1.0000000000000000e+03
ITEM: ATOMS id x y z ix iy iz
1 3.14871 -2.99083 11.49573 0 0 0
2 3.27915 -2.01040 11.57331 0 0 0
3 2.94990 -1.10619 11.88923 0 0 0
4 2.17571 -0.51304 12.15466 0 0 0
5 1.46239 -0.61176 12.88809 0 0 0
6 1.74392 -0.85162 13.80963 0 0 0
7 2.67128 -0.54155 13.93206 0 0 0
8 3.41878 -1.14940 14.06387 0 0 0
9 3.51185 -2.02295 13.69543 0 0 0
10 3.31283 -2.88839 14.09618 0 0 0
11 3.97044 -3.34173 14.71737 0 0 0
12 3.82169 -2.99829 15.64249 0 0 0
13 4.74075 -2.56805 15.84642 0 0 0
14 5.20587 -3.05732 16.52968 0 0 0
15 5.31351 -2.40330 17.23407 0 0 0
16 5.33052 -1.94016 18.31564 0 0 0
17 4.78268 -1.15736 18.24515 0 0 0
18 4.17662 -0.48094 18.67001 0 0 0
19 4.22867 -0.08156 19.54646 0 0 0
20 3.40590 0.06186 20.13792 0 0 0
21 2.76568 0.84005 20.54362 0 0 0
22 2.50355 1.70587 20.93750 0 0 0
23 1.80683 2.36696 21.22082 0 0 0
24 1.52377 3.12799 21.67258 0 0 0
25 0.86895 2.77723 22.31007 0 0 0
26 -0.03860 3.01359 22.59769 0 0 0
27 -0.09844 2.54948 23.45388 0 0 0
28 0.26089 1.80557 23.90360 0 0 0
29 0.98955 1.43644 24.34161 0 0 0
30 1.80635 1.27594 23.76546 0 0 0
31 2.36850 1.11020 24.55028 0 0 0
32 2.34756 2.04749 24.43220 0 0 0
33 2.55073 3.01380 24.19526 0 0 0
34 3.28022 2.64714 23.65380 0 0 0
35 4.21692 2.62770 23.32029 0 0 0
36 5.16425 2.29358 23.30963 0 0 0
37 5.30644 1.33545 23.31957 0 0 0
38 6.29303 1.27374 23.42516 0 0 0
39 6.26652 0.49961 24.04210 0 0 0
40 5.88774 -0.00278 24.80875 0 0 0
41 5.30202 -0.43258 25.55533 0 0 0
42 4.75941 -1.04367 26.08045 0 0 0
43 4.87449 -2.01520 26.33401 0 0 0
44 4.60588 -2.99220 26.37189 0 0 0
45 4.39450 -3.34583 27.19438 0 0 0
46 3.77201 -4.02158 27.42477 0 0 0
47 3.45699 -4.45305 28.27176 0 0 0
48 3.28693 -5.30841 28.58589 0 0 0
49 4.16290 -5.70647 28.67152 0 0 0
50 4.78389 -5.47267 27.94643 0 0 0
51 4.16021 -5.23234 27.22117 0 0 0
52 -0.50898 2.09126 22.37452 0 0 0
53 -1.06494 1.40197 22.84797 0 0 0
54 -1.17682 0.55051 22.30805 0 0 0
55 -2.06755 0.48063 21.98267 0 0 0
56 -2.87793 0.44634 21.38554 0 0 0
57 -3.76496 0.27624 21.77146 0 0 0
58 -4.35168 -0.28609 22.36123 0 0 0
59 -5.04859 -0.72923 21.82669 0 0 0
60 -5.27407 -0.60066 20.90576 0 0 0
61 -5.96297 -1.12362 20.43560 0 0 0
62 -6.76222 -0.91840 21.01934 0 0 0
63 -6.73238 -0.10205 21.52337 0 0 0
64 -5.89697 0.40021 21.87546 0 0 0
65 -5.77738 1.37339 21.99219 0 0 0
66 -6.44959 1.72232 22.66050 0 0 0
67 -7.29946 2.21991 22.55074 0 0 0
68 -8.19527 2.64593 22.67780 0 0 0
69 -8.56700 3.31654 23.26758 0 0 0
70 -8.59404 4.31006 23.59858 0 0 0
71 -9.11718 4.65818 24.31317 0 0 0
72 -8.77373 5.15996 25.17797 0 0 0
73 -8.99921 5.89836 24.67208 0 0 0
74 -8.54033 6.09165 23.81711 0 0 0
75 -8.86303 6.57100 22.95927 0 0 0
76 -9.67715 7.03817 22.80215 0 0 0
77 -0.78212 3.35041 23.02109 0 0 0
78 -0.89516 4.22613 22.68938 0 0 0
79 -0.99066 4.65642 23.54836 0 0 0
80 -1.01430 5.41355 24.16285 0 0 0
81 -0.31468 6.17756 24.39954 0 0 0
82 0.27113 6.93133 24.17822 0 0 0
83 0.41931 7.51346 24.92942 0 0 0
84 1.18022 7.70142 24.22066 0 0 0
85 1.50923 8.23572 23.51249 0 0 0
86 2.29710 8.35074 24.05636 0 0 0
87 2.17605 8.60114 24.96291 0 0 0
88 2.14093 7.91988 25.57826 0 0 0
89 3.01560 8.01945 25.86158 0 0 0
90 3.91935 8.18351 26.44481 0 0 0
91 4.69174 8.49562 26.04199 0 0 0
92 4.44218 9.40014 26.47578 0 0 0
93 4.94643 10.22191 26.39149 0 0 0
94 4.40816 10.74860 27.12521 0 0 0
95 5.02349 11.59248 27.01827 0 0 0
96 5.65800 12.22392 27.44473 0 0 0