ITEM: TIMESTEP
0
ITEM: NUMBER OF ATOMS
199
ITEM: BOX BOUNDS pp pp pp
-1.0000000000000000e+03 1.0000000000000000e+03
-1.0000000000000000e+03 1.0000000000000000e+03
-1.0000000000000000e+03 1.0000000000000000e+03
ITEM: ATOMS id x y z ix iy iz
1 0.00000 0.00000 0.00000 0 0 0
2 0.00000 0.00000 1.00000 0 0 0
3 0.00000 -0.50000 1.86603 0 0 0
4 0.00000 0.00000 2.73205 0 0 0
5 0.00000 -0.50000 3.59808 0 0 0
6 0.00000 0.00000 4.46410 0 0 0
7 0.00000 -0.50000 5.33013 0 0 0
8 0.00000 0.00000 6.19615 0 0 0
9 0.00000 -0.50000 7.06218 0 0 0
10 0.00000 0.00000 7.92820 0 0 0
11 -0.85880 0.50347 8.02297 0 0 0
12 -1.71760 0.89211 8.35678 0 0 0
13 -2.57639 1.37552 8.18711 0 0 0
14 -3.43519 1.76416 8.52092 0 0 0
15 -4.29399 2.24756 8.35125 0 0 0
16 -5.15279 2.63620 8.68506 0 0 0
17 -6.01158 3.11960 8.51539 0 0 0
18 -6.87038 3.50824 8.84919 0 0 0
19 -7.72918 3.99165 8.67953 0 0 0
20 0.76597 0.64272 7.94258 0 0 0
21 1.53194 1.19214 8.27638 0 0 0
22 2.29791 1.75593 7.96748 0 0 0
23 3.06388 2.30535 8.30128 0 0 0
24 3.82985 2.86915 7.99237 0 0 0
25 4.59582 3.41857 8.32618 0 0 0
26 5.36179 3.98237 8.01727 0 0 0
27 6.12776 4.53179 8.35108 0 0 0
28 6.89373 5.09558 8.04217 0 0 0
29 0.09283 -0.64548 8.68632 0 0 0
30 0.18566 -1.58354 9.02013 0 0 0
31 0.27848 -1.76348 9.99941 0 0 0
32 0.37131 -2.70154 10.33322 0 0 0
33 0.46414 -2.88149 11.31251 0 0 0
34 0.55697 -3.81955 11.64631 0 0 0
35 0.64980 -3.99949 12.62560 0 0 0
36 0.74262 -4.93755 12.95941 0 0 0
37 0.83545 -5.11750 13.93869 0 0 0
38 1.56161 -4.54295 14.31630 0 0 0
39 2.28777 -4.23418 14.93059 0 0 0
40 3.01393 -3.54781 14.97033 0 0 0
41 3.74009 -3.23904 15.58463 0 0 0
42 4.46625 -2.55266 15.62437 0 0 0
43 5.19241 -2.24389 16.23866 0 0 0
44 5.91857 -1.55752 16.27840 0 0 0
45 6.64473 -1.24875 16.89269 0 0 0
46 7.37089 -0.56237 16.93244 0 0 0
47 1.06496 -6.08036 14.08088 0 0 0
48 1.29447 -6.98532 13.72258 0 0 0
49 1.52399 -7.74809 14.32715 0 0 0
50 1.75350 -8.65305 13.96885 0 0 0
51 1.98301 -9.41582 14.57342 0 0 0
52 2.21252 -10.32078 14.21512 0 0 0
53 2.44203 -11.08355 14.81969 0 0 0
54 2.67154 -11.98851 14.46139 0 0 0
55 2.90105 -12.75128 15.06596 0 0 0
56 -0.02726 -4.90938 14.39958 0 0 0
57 -0.88997 -4.95959 14.90278 0 0 0
58 -1.75268 -4.54891 15.19786 0 0 0
59 -2.61539 -4.59912 15.70106 0 0 0
60 -3.47810 -4.18844 15.99614 0 0 0
61 -4.34082 -4.23865 16.49934 0 0 0
62 -5.20353 -3.82797 16.79442 0 0 0
63 -6.06624 -3.87818 17.29762 0 0 0
64 -6.92895 -3.46750 17.59270 0 0 0
65 -6.74085 -2.64300 18.12638 0 0 0
66 -6.55275 -2.19581 19.00081 0 0 0
67 -6.36465 -1.21493 19.05075 0 0 0
68 -6.17654 -0.76773 19.92518 0 0 0
69 -5.98844 0.21315 19.97512 0 0 0
70 -5.80034 0.66034 20.84955 0 0 0
71 -5.61224 1.64122 20.89948 0 0 0
72 -5.42414 2.08842 21.77392 0 0 0
73 -5.23604 3.06930 21.82385 0 0 0
74 -7.43408 -4.12092 18.15651 0 0 0
75 -7.93921 -4.96871 18.31808 0 0 0
76 -8.44434 -5.25267 19.13307 0 0 0
77 -8.94947 -6.10046 19.29464 0 0 0
78 -9.45459 -6.38443 20.10963 0 0 0
79 -9.95972 -7.23222 20.27120 0 0 0
80 -10.46485 -7.51618 21.08618 0 0 0
81 -10.96998 -8.36397 21.24775 0 0 0
82 -11.47511 -8.64794 22.06274 0 0 0
83 -7.47586 -3.22732 16.79070 0 0 0
84 -8.02277 -2.61832 16.21623 0 0 0
85 -8.56968 -2.81131 15.40159 0 0 0
86 -9.11658 -2.20231 14.82713 0 0 0
87 -9.66349 -2.39531 14.01249 0 0 0
88 -10.21040 -1.78631 13.43803 0 0 0
89 -10.75731 -1.97930 12.62338 0 0 0
90 -11.30422 -1.37030 12.04892 0 0 0
91 -11.85113 -1.56330 11.23428 0 0 0
92 -11.73186 -0.82566 10.56970 0 0 0
93 -11.61259 0.14544 10.36297 0 0 0
94 -11.49332 0.45196 9.41860 0 0 0
95 -11.37405 1.42306 9.21187 0 0 0
96 -11.25478 1.72958 8.26751 0 0 0
97 -11.13550 2.70068 8.06078 0 0 0
98 -11.01623 3.00719 7.11642 0 0 0
99 -10.89696 3.97830 6.90969 0 0 0
100 -10.77769 4.28481 5.96533 0 0 0
101 -12.81609 -1.62983 11.48811 0 0 0
102 -13.78105 -1.81437 11.67466 0 0 0
103 -14.74600 -1.74507 11.92775 0 0 0
104 -15.71096 -1.92961 12.11430 0 0 0
105 -16.67592 -1.86032 12.36739 0 0 0
106 -17.64088 -2.04485 12.55394 0 0 0
107 -18.60584 -1.97556 12.80703 0 0 0
108 -19.57080 -2.16009 12.99359 0 0 0
109 -20.53575 -2.09080 13.24667 0 0 0
110 -11.55313 -2.42767 10.82924 0 0 0
111 -11.25513 -2.97371 10.04627 0 0 0
112 -10.95712 -3.92480 10.12768 0 0 0
113 -10.65912 -4.47084 9.34472 0 0 0
114 -10.36112 -5.42193 9.42612 0 0 0
115 -10.06312 -5.96797 8.64316 0 0 0
116 -9.76512 -6.91906 8.72457 0 0 0
117 -9.46711 -7.46510 7.94160 0 0 0
118 -9.16911 -8.41619 8.02301 0 0 0
119 -9.96565 -9.01975 7.98785 0 0 0
120 -10.76219 -9.52487 7.65561 0 0 0
121 -11.55874 -10.06515 7.92694 0 0 0
122 -12.35528 -10.57027 7.59471 0 0 0
123 -13.15182 -11.11055 7.86604 0 0 0
124 -13.94836 -11.61567 7.53381 0 0 0
125 -14.74490 -12.15595 7.80514 0 0 0
126 -15.54144 -12.66107 7.47291 0 0 0
127 -16.33798 -13.20135 7.74424 0 0 0
128 -8.69314 -8.54355 8.89320 0 0 0
129 -8.21717 -9.08894 9.58313 0 0 0
130 -7.74120 -8.76414 10.40042 0 0 0
131 -7.26523 -9.30953 11.09034 0 0 0
132 -6.78926 -8.98473 11.90763 0 0 0
133 -6.31329 -9.53012 12.59756 0 0 0
134 -5.83732 -9.20532 13.41485 0 0 0
135 -5.36135 -9.75071 14.10477 0 0 0
136 -4.88538 -9.42591 14.92206 0 0 0
137 -8.55012 -8.63771 7.26950 0 0 0
138 -7.93112 -8.45280 6.50619 0 0 0
139 -7.31213 -9.02140 5.96439 0 0 0
140 -6.69313 -8.83648 5.20107 0 0 0
141 -6.07413 -9.40508 4.65928 0 0 0
142 -5.45514 -9.22017 3.89596 0 0 0
143 -4.83614 -9.78876 3.35416 0 0 0
144 -4.21715 -9.60385 2.59085 0 0 0
145 -3.59815 -10.17245 2.04905 0 0 0
146 -3.98768 -11.08798 1.94872 0 0 0
147 -4.37721 -11.83069 1.40407 0 0 0
148 -4.76674 -12.67373 1.77495 0 0 0
149 -5.15627 -13.41644 1.23030 0 0 0
150 -5.54580 -14.25948 1.60118 0 0 0
151 -5.93534 -15.00219 1.05653 0 0 0
152 -6.32487 -15.84523 1.42741 0 0 0
153 -6.71440 -16.58794 0.88276 0 0 0
154 -7.10393 -17.43098 1.25364 0 0 0
155 -2.71327 -10.23594 2.51053 0 0 0
156 -1.82840 -10.52166 2.87844 0 0 0
157 -0.94352 -10.34590 3.30984 0 0 0
158 -0.05864 -10.63163 3.67774 0 0 0
159 0.82623 -10.45587 4.10914 0 0 0
160 1.71111 -10.74159 4.47705 0 0 0
161 2.59598 -10.56584 4.90845 0 0 0
162 3.48086 -10.85156 5.27635 0 0 0
163 4.36574 -10.67580 5.70775 0 0 0
164 -3.47362 -9.76283 1.14533 0 0 0
165 -3.34909 -8.95623 0.56750 0 0 0
166 -3.22456 -9.05335 -0.41995 0 0 0
167 -3.10003 -8.24675 -0.99778 0 0 0
168 -2.97550 -8.34387 -1.98523 0 0 0
169 -2.85097 -7.53727 -2.56307 0 0 0
170 -2.72644 -7.63439 -3.55052 0 0 0
171 -2.60191 -6.82779 -4.12835 0 0 0
172 -2.47738 -6.92491 -5.11580 0 0 0
173 -2.62821 -6.04164 -5.55975 0 0 0
174 -2.77903 -5.05474 -5.50258 0 0 0
175 -2.92985 -4.51177 -6.32868 0 0 0
176 -3.08068 -3.52487 -6.27151 0 0 0
177 -3.23150 -2.98190 -7.09761 0 0 0
178 -3.38232 -1.99500 -7.04044 0 0 0
179 -3.53315 -1.45203 -7.86654 0 0 0
180 -3.68397 -0.46512 -7.80937 0 0 0
181 -3.83479 0.07784 -8.63547 0 0 0
182 -3.13229 -7.59203 -5.47083 0 0 0
183 -3.78720 -7.99226 -6.11185 0 0 0
184 -4.44211 -8.74752 -6.08576 0 0 0
185 -5.09702 -9.14774 -6.72678 0 0 0
186 -5.75193 -9.90300 -6.70068 0 0 0
187 -6.40684 -10.30323 -7.34171 0 0 0
188 -7.06175 -11.05849 -7.31561 0 0 0
189 -7.71666 -11.45871 -7.95663 0 0 0
190 -8.37157 -12.21397 -7.93054 0 0 0
191 -1.54694 -7.23832 -5.30569 0 0 0
192 -0.61650 -7.41480 -5.62684 0 0 0
193 0.31394 -7.78116 -5.63458 0 0 0
194 1.24438 -7.95764 -5.95573 0 0 0
195 2.17482 -8.32400 -5.96347 0 0 0
196 3.10526 -8.50048 -6.28462 0 0 0
197 4.03570 -8.86684 -6.29236 0 0 0
198 4.96614 -9.04332 -6.61350 0 0 0
199 5.89658 -9.40968 -6.62124 0 0 0
ITEM: TIMESTEP
1000
ITEM: NUMBER OF ATOMS
199
ITEM: BOX BOUNDS pp pp pp
-1.0000000000000000e+03 1.0000000000000000e+03
-1.0000000000000000e+03 1.0000000000000000e+03
-1.0000000000000000e+03 1.0000000000000000e+03
ITEM: ATOMS id x y z ix iy iz
1 1.13185 -0.50071 2.29467 0 0 0
2 0.61399 -0.35446 3.07292 0 0 0
3 0.29918 0.46067 3.44742 0 0 0
4 0.89819 0.32519 4.15836 0 0 0
5 1.10330 -0.50326 4.76629 0 0 0
6 1.90460 -0.30613 5.33047 0 0 0
7 2.21942 -0.25169 6.22857 0 0 0
8 1.38878 -0.49884 6.68278 0 0 0
9 0.62695 -0.38972 7.30468 0 0 0
10 0.71710 0.35934 7.94842 0 0 0
11 -0.13853 0.65759 7.60639 0 0 0
12 -1.08435 0.82074 7.86505 0 0 0
13 -1.77631 1.26900 8.34255 0 0 0
14 -2.09268 2.25276 8.53921 0 0 0
15 -2.45341 2.62018 9.33785 0 0 0
16 -3.38451 2.85123 9.44996 0 0 0
17 -4.29593 2.55985 9.23862 0 0 0
18 -4.74551 3.25652 8.86939 0 0 0
19 -4.76400 4.06820 8.39995 0 0 0
20 1.24941 1.18862 8.16023 0 0 0
21 1.70211 1.43882 9.09627 0 0 0
22 2.45835 2.08434 8.96692 0 0 0
23 2.62628 2.67743 8.14559 0 0 0
24 2.99699 3.55274 7.77504 0 0 0
25 3.44063 4.45327 7.58552 0 0 0
26 3.96040 4.60577 8.39890 0 0 0
27 3.53726 4.51476 9.21452 0 0 0
28 4.43741 4.40345 9.71518 0 0 0
29 0.85803 -0.19192 8.71345 0 0 0
30 0.70973 -1.11278 8.96209 0 0 0
31 -0.03266 -1.64932 8.94544 0 0 0
32 -0.75986 -2.13182 9.33288 0 0 0
33 -0.62776 -2.52307 10.25687 0 0 0
34 -1.22377 -2.43742 11.09924 0 0 0
35 -1.35385 -2.85931 12.01393 0 0 0
36 -1.85726 -3.17781 12.76547 0 0 0
37 -1.98117 -3.67315 13.61314 0 0 0
38 -1.21576 -3.28267 14.04656 0 0 0
39 -0.27324 -3.49305 14.27253 0 0 0
40 0.40760 -4.17009 14.20196 0 0 0
41 1.36993 -4.05636 14.45994 0 0 0
42 0.85734 -3.32803 14.84718 0 0 0
43 0.59029 -2.37172 14.78296 0 0 0
44 0.19030 -1.58832 14.51286 0 0 0
45 0.54640 -0.70953 14.68149 0 0 0
46 1.57234 -0.63200 14.81564 0 0 0
47 -1.69415 -4.30737 14.26063 0 0 0
48 -1.11338 -4.88669 14.86428 0 0 0
49 -0.20552 -5.25342 15.07476 0 0 0
50 0.65261 -4.99482 15.18783 0 0 0
51 0.79378 -5.78428 14.70845 0 0 0
52 0.73129 -6.70964 14.64002 0 0 0
53 0.78655 -7.31074 13.85317 0 0 0
54 0.75194 -8.09026 13.26380 0 0 0
55 -0.07794 -7.58386 13.21575 0 0 0
56 -2.65935 -3.00057 13.68912 0 0 0
57 -2.81050 -3.08568 14.66504 0 0 0
58 -3.62845 -3.29507 15.23573 0 0 0
59 -3.38181 -3.16451 16.20698 0 0 0
60 -2.77602 -2.41177 16.25358 0 0 0
61 -3.63037 -2.13540 16.57869 0 0 0
62 -4.45596 -1.86306 17.15721 0 0 0
63 -5.45847 -2.04671 17.15669 0 0 0
64 -6.35693 -2.49185 17.12854 0 0 0
65 -7.12799 -1.80673 17.18923 0 0 0
66 -6.99578 -1.04454 17.79237 0 0 0
67 -6.45111 -0.23000 18.12066 0 0 0
68 -5.93598 0.64030 18.39515 0 0 0
69 -5.68765 1.48816 18.87357 0 0 0
70 -6.45779 1.33752 19.43291 0 0 0
71 -6.81953 1.41632 20.42284 0 0 0
72 -5.96090 1.48299 20.88978 0 0 0
73 -5.57780 2.34244 20.98332 0 0 0
74 -6.51928 -3.08306 17.90720 0 0 0
75 -7.36770 -3.34897 18.29394 0 0 0
76 -7.79988 -4.22353 17.77925 0 0 0
77 -7.79690 -4.39609 18.72449 0 0 0
78 -7.80905 -5.12916 19.43188 0 0 0
79 -7.70153 -5.98889 19.90244 0 0 0
80 -7.58266 -6.97915 20.07478 0 0 0
81 -7.68874 -7.99742 20.14403 0 0 0
82 -8.24340 -8.00932 20.91090 0 0 0
83 -6.95617 -2.81599 16.39862 0 0 0
84 -7.74876 -2.27529 16.07341 0 0 0
85 -8.31814 -1.74960 15.48240 0 0 0
86 -9.06543 -2.43189 15.36678 0 0 0
87 -9.15859 -2.53624 14.39786 0 0 0
88 -9.53735 -2.83129 13.49736 0 0 0
89 -10.05256 -3.25287 12.66837 0 0 0
90 -10.81487 -3.20301 12.10655 0 0 0
91 -11.45548 -3.91504 11.72247 0 0 0
92 -11.89298 -3.19880 12.18021 0 0 0
93 -11.86859 -2.57158 11.45881 0 0 0
94 -12.10790 -1.97718 10.67995 0 0 0
95 -12.71095 -1.85303 9.87470 0 0 0
96 -13.46676 -1.49780 10.42888 0 0 0
97 -13.48398 -1.30213 11.39744 0 0 0
98 -13.02985 -0.48976 11.92867 0 0 0
99 -12.87469 -0.04019 11.11336 0 0 0
100 -11.90336 0.08521 10.85500 0 0 0
101 -12.26337 -4.14642 11.34768 0 0 0
102 -12.85913 -3.46263 11.74632 0 0 0
103 -13.43259 -2.68640 11.65805 0 0 0
104 -14.32599 -2.62069 11.42402 0 0 0
105 -15.17839 -2.86716 11.02744 0 0 0
106 -15.04319 -1.92116 11.29105 0 0 0
107 -15.17151 -0.89314 11.26405 0 0 0
108 -14.85459 0.11714 11.24646 0 0 0
109 -14.28082 0.87330 10.88766 0 0 0
110 -10.77769 -3.99686 11.02764 0 0 0
111 -10.35132 -4.28917 10.27813 0 0 0
112 -9.86783 -5.03459 9.79079 0 0 0
113 -9.95718 -5.90709 9.35093 0 0 0
114 -10.49643 -6.41995 8.67879 0 0 0
115 -10.81828 -6.35969 7.78048 0 0 0
116 -10.98997 -7.02666 7.15736 0 0 0
117 -10.10463 -7.48564 7.11028 0 0 0
118 -9.17685 -7.84541 7.27628 0 0 0
119 -8.93856 -8.62833 6.85446 0 0 0
120 -9.71502 -9.16312 6.93673 0 0 0
121 -10.58652 -9.58467 6.59529 0 0 0
122 -11.12606 -10.36547 6.46978 0 0 0
123 -11.90285 -10.11699 5.95581 0 0 0
124 -12.38951 -9.33445 6.42407 0 0 0
125 -12.97287 -8.59367 6.49401 0 0 0
126 -12.89014 -8.97637 5.59638 0 0 0
127 -12.87926 -8.52432 4.74598 0 0 0
128 -9.35740 -7.33620 8.04822 0 0 0
129 -8.82423 -7.20424 8.79929 0 0 0
130 -8.78947 -8.21171 9.11916 0 0 0
131 -8.04257 -8.69148 9.60590 0 0 0
132 -7.50247 -8.90899 10.42760 0 0 0
133 -6.87907 -9.55689 10.78579 0 0 0
134 -5.84670 -9.65507 10.84905 0 0 0
135 -5.90952 -9.84099 11.86766 0 0 0
136 -5.64881 -10.42881 12.57096 0 0 0
137 -8.16510 -8.07392 7.48432 0 0 0
138 -7.15779 -8.37112 7.32731 0 0 0
139 -6.97437 -8.10202 6.40391 0 0 0
140 -7.26677 -8.46545 5.56757 0 0 0
141 -6.93767 -8.33752 4.66032 0 0 0
142 -6.24482 -9.03589 4.35586 0 0 0
143 -5.65562 -9.29192 3.47317 0 0 0
144 -6.20237 -9.47863 2.65132 0 0 0
145 -6.24913 -9.99942 1.84581 0 0 0
146 -5.84163 -10.89027 1.91971 0 0 0
147 -5.02145 -11.36763 1.60383 0 0 0
148 -4.18595 -11.82110 1.56144 0 0 0
149 -3.72797 -12.56274 1.97852 0 0 0
150 -3.18194 -13.30165 2.42120 0 0 0
151 -3.16906 -14.24175 2.63933 0 0 0
152 -3.40137 -15.15427 2.56757 0 0 0
153 -3.86132 -15.26983 1.69075 0 0 0
154 -3.82691 -16.22308 1.56836 0 0 0
155 -5.32983 -9.60774 2.13795 0 0 0
156 -4.58298 -10.02332 1.61842 0 0 0
157 -3.68397 -10.37909 1.61546 0 0 0
158 -2.74582 -10.21381 1.26966 0 0 0
159 -1.76316 -10.33562 1.70892 0 0 0
160 -1.21830 -10.92682 1.23378 0 0 0
161 -0.25663 -11.11349 1.19081 0 0 0
162 0.62049 -10.95877 1.57399 0 0 0
163 0.61411 -11.79954 2.08584 0 0 0
164 -7.07935 -9.90483 1.18508 0 0 0
165 -6.39494 -9.26401 0.97269 0 0 0
166 -6.69744 -8.89921 0.01260 0 0 0
167 -6.00089 -9.48691 -0.49451 0 0 0
168 -5.73174 -10.24354 -1.05653 0 0 0
169 -5.40763 -9.56096 -1.65608 0 0 0
170 -5.12782 -8.72264 -2.05749 0 0 0
171 -4.96391 -8.34917 -2.91678 0 0 0
172 -4.56924 -7.80895 -3.60854 0 0 0
173 -4.23641 -7.51989 -4.46554 0 0 0
174 -3.86453 -6.65081 -4.05650 0 0 0
175 -3.59448 -5.90645 -3.50329 0 0 0
176 -4.09095 -5.19291 -3.87769 0 0 0
177 -3.98759 -5.06222 -4.89265 0 0 0
178 -3.00491 -4.80234 -4.64729 0 0 0
179 -2.12832 -4.51378 -5.08303 0 0 0
180 -1.27276 -4.16994 -5.19812 0 0 0
181 -1.07509 -3.20109 -5.33535 0 0 0
182 -5.15378 -8.03308 -4.33287 0 0 0
183 -5.86869 -8.46629 -4.81809 0 0 0
184 -6.27012 -8.63325 -5.66802 0 0 0
185 -5.86886 -9.53934 -5.60835 0 0 0
186 -6.11416 -9.99333 -6.49030 0 0 0
187 -5.32815 -10.16788 -7.09390 0 0 0
188 -5.46841 -10.12474 -8.12365 0 0 0
189 -6.44160 -10.15292 -7.96746 0 0 0
190 -6.75475 -10.79997 -8.55390 0 0 0
191 -3.80710 -8.32892 -3.56967 0 0 0
192 -3.04706 -7.78236 -3.15146 0 0 0
193 -2.39601 -7.16257 -2.87618 0 0 0
194 -1.63150 -6.96886 -3.42062 0 0 0
195 -1.07543 -6.62884 -4.20919 0 0 0
196 -0.83134 -7.26388 -4.90319 0 0 0
197 0.10910 -7.38477 -5.24889 0 0 0
198 0.33892 -7.64811 -4.39226 0 0 0
199 0.26352 -8.60960 -4.40233 0 0 0
ITEM: TIMESTEP
2000
ITEM: NUMBER OF ATOMS
199
ITEM: BOX BOUNDS pp pp pp
-1.0000000000000000e+03 1.0000000000000000e+03
-1.0000000000000000e+03 1.0000000000000000e+03
-1.0000000000000000e+03 1.0000000000000000e+03
ITEM: ATOMS id x y z ix iy iz
1 -2.39267 -1.44219 6.63926 0 0 0
2 -1.72781 -1.49735 5.88969 0 0 0
3 -0.91179 -0.92605 5.90923 0 0 0
4 0.05933 -0.81505 5.87082 0 0 0
5 0.07888 0.01710 6.35815 0 0 0
6 -0.12342 0.95247 6.47337 0 0 0
7 0.79529 1.31961 6.80193 0 0 0
8 1.80465 1.47277 6.49688 0 0 0
9 1.48005 0.58304 6.83352 0 0 0
10 1.43314 0.34043 7.76155 0 0 0
11 1.05881 1.05462 8.27918 0 0 0
12 0.12254 1.48415 8.40023 0 0 0
13 -0.76745 1.87689 8.67088 0 0 0
14 -1.63049 1.58371 9.06086 0 0 0
15 -2.56012 1.80220 9.00517 0 0 0
16 -3.40098 2.18468 8.91413 0 0 0
17 -3.86414 1.45832 8.64949 0 0 0
18 -4.61460 1.02059 8.17993 0 0 0
19 -4.77947 1.50251 7.30562 0 0 0
20 2.09247 1.07332 7.58323 0 0 0
21 2.67869 1.57955 7.09764 0 0 0
22 3.48558 2.05506 7.43229 0 0 0
23 3.54272 2.30544 8.36462 0 0 0
24 4.26500 2.91209 8.45117 0 0 0
25 4.59838 2.20450 7.84672 0 0 0
26 4.19317 1.29968 7.83576 0 0 0
27 5.14182 1.08048 8.15151 0 0 0
28 5.96336 1.22926 7.75606 0 0 0
29 1.13895 -0.50474 8.06394 0 0 0
30 0.48049 -1.13744 8.32877 0 0 0
31 -0.17583 -1.48402 8.96899 0 0 0
32 -0.28182 -1.17521 9.89676 0 0 0
33 -0.84923 -1.49073 10.60970 0 0 0
34 -1.06127 -2.24058 11.26331 0 0 0
35 -1.35996 -2.21266 12.21213 0 0 0
36 -1.79014 -2.93057 12.70352 0 0 0
37 -1.85904 -3.61918 13.47840 0 0 0
38 -1.85676 -4.10148 12.59680 0 0 0
39 -0.95045 -4.48243 12.71551 0 0 0
40 -0.76726 -4.02504 13.55714 0 0 0
41 -0.33367 -3.71697 14.30427 0 0 0
42 -0.18138 -3.48873 15.30568 0 0 0
43 -0.33364 -2.79049 15.91358 0 0 0
44 0.38430 -2.17472 16.37476 0 0 0
45 1.20968 -2.21575 15.80364 0 0 0
46 1.75581 -2.94911 15.30253 0 0 0
47 -1.46132 -3.35398 14.36371 0 0 0
48 -1.32743 -4.32618 14.58209 0 0 0
49 -1.13765 -5.12506 15.09865 0 0 0
50 -0.98944 -5.99791 14.70911 0 0 0
51 -0.11084 -5.86674 15.11287 0 0 0
52 0.04822 -6.80359 15.03536 0 0 0
53 -0.78850 -6.96927 15.45236 0 0 0
54 -1.46578 -7.51808 15.84623 0 0 0
55 -0.66253 -8.10491 15.84864 0 0 0
56 -2.49043 -3.92178 14.29572 0 0 0
57 -3.14549 -3.78899 15.09727 0 0 0
58 -3.55997 -3.69950 16.01244 0 0 0
59 -4.08243 -3.11190 15.47152 0 0 0
60 -4.27080 -2.54952 16.26325 0 0 0
61 -4.66977 -1.96307 16.99593 0 0 0
62 -5.39063 -1.52259 17.69892 0 0 0
63 -6.29399 -1.10601 17.59337 0 0 0
64 -6.36090 -1.54714 16.75754 0 0 0
65 -7.06213 -0.85868 16.85926 0 0 0
66 -6.58398 -0.08501 16.46453 0 0 0
67 -6.01783 0.05877 17.24510 0 0 0
68 -5.13745 0.18455 17.49863 0 0 0
69 -5.72393 0.91054 17.86955 0 0 0
70 -5.44826 1.40982 18.67736 0 0 0
71 -4.79501 1.30171 19.35447 0 0 0
72 -4.99440 2.18856 19.79133 0 0 0
73 -5.54005 2.55558 20.51694 0 0 0
74 -6.01710 -2.32637 17.26842 0 0 0
75 -6.12584 -3.01161 18.04287 0 0 0
76 -6.36913 -3.85786 17.53035 0 0 0
77 -6.48442 -4.83343 17.42192 0 0 0
78 -6.11299 -5.74624 17.46712 0 0 0
79 -5.52282 -5.59395 18.18719 0 0 0
80 -4.58845 -5.68348 18.15997 0 0 0
81 -4.27456 -4.88412 18.62807 0 0 0
82 -4.84931 -4.48224 19.29654 0 0 0
83 -6.44835 -2.12566 15.96035 0 0 0
84 -6.97296 -2.74957 15.50967 0 0 0
85 -6.90813 -3.78354 15.75914 0 0 0
86 -6.88575 -4.67705 15.32286 0 0 0
87 -7.35009 -4.50938 14.52393 0 0 0
88 -7.80261 -4.03608 13.75889 0 0 0
89 -8.65129 -3.62498 13.95118 0 0 0
90 -9.23156 -4.07121 13.20470 0 0 0
91 -9.88611 -4.36164 12.36060 0 0 0
92 -10.30370 -3.58790 11.88506 0 0 0
93 -10.50082 -3.06493 11.08284 0 0 0
94 -10.88718 -2.53810 11.82999 0 0 0
95 -10.79801 -1.59537 11.93816 0 0 0
96 -10.34275 -1.35818 12.72532 0 0 0
97 -10.00371 -1.38047 13.59967 0 0 0
98 -10.21001 -2.25687 13.90197 0 0 0
99 -10.68557 -3.02803 13.95865 0 0 0
100 -11.56057 -3.40875 13.51825 0 0 0
101 -10.84965 -4.69406 12.29140 0 0 0
102 -11.85919 -4.76737 12.13629 0 0 0
103 -12.40019 -4.52912 11.37252 0 0 0
104 -13.33346 -4.54668 11.78546 0 0 0
105 -14.29747 -4.44903 11.93686 0 0 0
106 -15.23439 -4.16111 11.99089 0 0 0
107 -15.56313 -3.91605 12.92381 0 0 0
108 -16.05991 -4.57508 13.29889 0 0 0
109 -16.94527 -4.32284 13.89228 0 0 0
110 -9.14691 -4.95788 12.03277 0 0 0
111 -8.67539 -5.31934 11.19499 0 0 0
112 -8.34204 -4.74577 10.49620 0 0 0
113 -8.22598 -5.21566 9.67510 0 0 0
114 -8.57689 -5.22493 8.69627 0 0 0
115 -8.74776 -5.38690 7.79132 0 0 0
116 -8.46344 -6.31499 7.53053 0 0 0
117 -7.91025 -7.06141 7.20192 0 0 0
118 -7.24144 -7.78965 6.91673 0 0 0
119 -7.79388 -8.50338 7.37887 0 0 0
120 -8.54204 -8.94233 6.89749 0 0 0
121 -9.38525 -9.18730 6.42830 0 0 0
122 -10.05204 -9.81956 6.85462 0 0 0
123 -10.75927 -10.16961 7.52669 0 0 0
124 -10.83577 -10.98666 7.13719 0 0 0
125 -11.63544 -11.37038 6.83764 0 0 0
126 -12.05957 -10.74015 6.17503 0 0 0
127 -12.16244 -9.84908 5.74254 0 0 0
128 -6.54977 -8.14213 7.66256 0 0 0
129 -6.07668 -7.49074 8.14550 0 0 0
130 -6.03754 -7.65030 9.11965 0 0 0
131 -6.08042 -8.06509 10.02418 0 0 0
132 -5.24935 -7.64313 10.31700 0 0 0
133 -5.19445 -6.68706 10.54771 0 0 0
134 -5.48730 -6.00413 11.26326 0 0 0
135 -5.14534 -6.70204 11.87021 0 0 0
136 -4.76138 -7.53831 12.30211 0 0 0
137 -6.52657 -7.11825 6.73511 0 0 0
138 -5.59021 -6.87797 6.38081 0 0 0
139 -6.27734 -7.03442 5.59683 0 0 0
140 -6.51177 -7.81987 4.98254 0 0 0
141 -6.82264 -7.64473 4.10683 0 0 0
142 -6.30107 -7.95521 3.32749 0 0 0
143 -6.56511 -8.32277 2.41525 0 0 0
144 -6.23252 -8.74601 1.58216 0 0 0
145 -5.85137 -9.71699 1.59208 0 0 0
146 -6.37690 -10.46577 1.88163 0 0 0
147 -7.22040 -10.86469 2.29984 0 0 0
148 -7.62819 -11.79638 2.22851 0 0 0
149 -7.37136 -12.76036 2.30790 0 0 0
150 -7.57372 -13.27174 3.08064 0 0 0
151 -7.32973 -14.18598 2.88717 0 0 0
152 -6.34374 -14.38243 2.96392 0 0 0
153 -5.95398 -14.08448 2.13123 0 0 0
154 -6.14792 -13.37939 1.43296 0 0 0
155 -5.03731 -9.22630 1.29716 0 0 0
156 -4.88883 -8.84975 2.23561 0 0 0
157 -4.17907 -9.46236 1.92776 0 0 0
158 -3.88884 -10.42022 2.03882 0 0 0
159 -2.94058 -10.29689 1.65272 0 0 0
160 -2.43252 -10.37866 0.77277 0 0 0
161 -2.59377 -9.96801 -0.09284 0 0 0
162 -2.29982 -9.06242 -0.33481 0 0 0
163 -1.42177 -9.45636 -0.45266 0 0 0
164 -6.02008 -10.49412 0.91314 0 0 0
165 -5.53654 -10.02770 0.19305 0 0 0
166 -4.64281 -9.65444 0.01715 0 0 0
167 -4.07224 -9.10809 -0.55998 0 0 0
168 -3.27554 -8.83253 -1.05090 0 0 0
169 -3.03948 -8.00161 -1.58340 0 0 0
170 -2.77470 -7.30060 -2.22303 0 0 0
171 -3.73856 -7.30891 -2.41537 0 0 0
172 -3.75445 -7.01357 -3.44515 0 0 0
173 -4.52881 -6.37973 -3.60870 0 0 0
174 -3.90458 -6.02012 -4.28260 0 0 0
175 -3.81013 -5.50561 -5.08965 0 0 0
176 -3.09065 -5.08426 -5.73083 0 0 0
177 -3.24125 -4.56965 -6.51117 0 0 0
178 -4.18205 -4.34592 -6.87496 0 0 0
179 -3.79696 -3.53399 -6.66137 0 0 0
180 -4.24780 -2.69394 -6.29254 0 0 0
181 -3.49714 -2.98395 -5.73639 0 0 0
182 -4.55907 -7.55300 -3.81871 0 0 0
183 -5.31211 -8.19459 -4.12470 0 0 0
184 -6.29195 -8.33876 -3.79053 0 0 0
185 -6.92913 -9.18024 -4.05539 0 0 0
186 -6.47403 -10.04186 -4.23190 0 0 0
187 -6.79654 -11.00580 -4.20307 0 0 0
188 -7.76135 -11.36443 -4.32526 0 0 0
189 -7.50435 -12.30400 -4.20601 0 0 0
190 -7.11930 -12.61050 -5.06780 0 0 0
191 -2.83902 -6.90282 -3.29061 0 0 0
192 -2.44125 -6.17561 -3.70077 0 0 0
193 -1.65444 -6.61077 -4.18426 0 0 0
194 -1.32483 -5.75210 -3.93553 0 0 0
195 -0.53239 -6.15361 -4.35200 0 0 0
196 0.01639 -7.00991 -4.29022 0 0 0
197 0.72602 -7.37396 -4.80233 0 0 0
198 0.45962 -8.27692 -5.08065 0 0 0
199 -0.13651 -8.43062 -4.30835 0 0 0
ITEM: TIMESTEP
3000
ITEM: NUMBER OF ATOMS
199
ITEM: BOX BOUNDS pp pp pp
-1.0000000000000000e+03 1.0000000000000000e+03
-1.0000000000000000e+03 1.0000000000000000e+03
-1.0000000000000000e+03 1.0000000000000000e+03
ITEM: ATOMS id x y z ix iy iz
1 -1.22005 -0.99770 7.47117 0 0 0
2 -1.56845 -0.64504 6.68798 0 0 0
3 -1.13437 -0.05144 5.93438 0 0 0
4 -1.43635 0.67183 6.60855 0 0 0
5 -1.55977 1.55703 6.30606 0 0 0
6 -0.98350 2.19824 6.82518 0 0 0
7 -0.26737 1.58262 7.17669 0 0 0
8 0.46229 1.88675 7.66598 0 0 0
9 0.84281 1.09146 8.06564 0 0 0
10 1.21343 0.41407 8.62184 0 0 0
11 0.28684 0.36668 8.70592 0 0 0
12 -0.18437 1.19098 8.53773 0 0 0
13 -0.99819 0.95581 9.04637 0 0 0
14 -1.51498 0.37465 9.64014 0 0 0
15 -1.48818 -0.36654 8.96905 0 0 0
16 -0.90914 -1.16819 8.68681 0 0 0
17 0.05894 -1.22738 8.51490 0 0 0
18 0.54182 -1.69169 7.80785 0 0 0
19 0.42883 -2.63308 7.89485 0 0 0
20 2.12911 0.00775 8.51873 0 0 0
21 2.85289 -0.18982 9.10664 0 0 0
22 3.44509 0.04353 8.35286 0 0 0
23 4.24498 -0.17620 8.93666 0 0 0
24 5.17165 -0.41789 8.92290 0 0 0
25 5.93258 0.06581 9.31382 0 0 0
26 6.49302 0.61053 8.74765 0 0 0
27 6.75658 1.45477 8.21338 0 0 0
28 7.77233 1.40454 8.13212 0 0 0
29 1.04977 0.48993 9.57442 0 0 0
30 1.24838 0.17997 10.47546 0 0 0
31 0.93317 0.25052 11.42805 0 0 0
32 0.39218 0.05758 12.14305 0 0 0
33 -0.12061 0.06519 12.96844 0 0 0
34 -0.34371 -0.80057 13.21279 0 0 0
35 -1.17810 -1.26393 12.95858 0 0 0
36 -1.95865 -1.61154 13.49316 0 0 0
37 -1.92348 -2.66000 13.64895 0 0 0
38 -1.45455 -2.49138 12.71949 0 0 0
39 -1.03413 -3.05876 12.05126 0 0 0
40 -1.25823 -3.90167 12.49176 0 0 0
41 -0.75971 -3.38841 13.12770 0 0 0
42 0.12316 -2.93521 13.18368 0 0 0
43 0.86860 -2.69043 12.51318 0 0 0
44 1.31756 -3.27828 11.75966 0 0 0
45 1.74049 -4.06727 11.58990 0 0 0
46 2.64331 -4.25076 12.11927 0 0 0
47 -2.13199 -3.62703 13.65455 0 0 0
48 -1.47558 -4.34640 13.41232 0 0 0
49 -0.93456 -5.07239 12.90631 0 0 0
50 -0.24052 -5.38030 13.56552 0 0 0
51 0.19564 -6.10971 13.91543 0 0 0
52 0.97325 -6.57417 14.32391 0 0 0
53 1.21753 -7.47186 14.19995 0 0 0
54 0.47301 -7.33427 14.84957 0 0 0
55 0.81463 -7.92413 15.55644 0 0 0
56 -1.90253 -2.16102 14.47494 0 0 0
57 -2.41571 -2.25030 15.25130 0 0 0
58 -2.35951 -2.11984 16.21546 0 0 0
59 -2.95187 -2.46238 16.86094 0 0 0
60 -3.96598 -2.60412 17.00751 0 0 0
61 -4.82811 -2.50173 17.39618 0 0 0
62 -5.74935 -2.37369 17.50342 0 0 0
63 -6.14789 -1.57475 17.95666 0 0 0
64 -6.76370 -1.27096 17.24650 0 0 0
65 -6.06991 -0.55384 17.14383 0 0 0
66 -5.82640 -0.29955 18.05477 0 0 0
67 -5.47148 0.43710 18.52611 0 0 0
68 -5.30963 1.35940 18.38005 0 0 0
69 -5.06038 2.21419 18.59033 0 0 0
70 -5.35010 3.06995 18.25532 0 0 0
71 -4.91695 3.45913 18.95153 0 0 0
72 -4.19547 2.79227 18.75232 0 0 0
73 -3.79173 2.66226 17.90465 0 0 0
74 -7.31466 -2.09672 17.26868 0 0 0
75 -6.99808 -2.95354 17.29893 0 0 0
76 -6.53192 -3.44198 16.62154 0 0 0
77 -6.30660 -4.36701 16.55915 0 0 0
78 -5.53807 -4.90196 16.88673 0 0 0
79 -5.02566 -5.69399 16.42803 0 0 0
80 -4.21908 -5.51867 16.93951 0 0 0
81 -4.34381 -4.88039 17.63829 0 0 0
82 -4.35035 -4.20807 16.88423 0 0 0
83 -7.21586 -1.35745 16.32055 0 0 0
84 -7.56995 -2.22918 16.04943 0 0 0
85 -8.29464 -2.27947 16.64686 0 0 0
86 -8.74466 -3.03578 16.23214 0 0 0
87 -9.19718 -3.78552 15.77530 0 0 0
88 -9.27134 -3.95305 14.79131 0 0 0
89 -9.47168 -3.91937 13.79402 0 0 0
90 -9.55825 -3.89066 12.76933 0 0 0
91 -9.99621 -3.92474 11.89371 0 0 0
92 -9.88984 -3.09167 11.32461 0 0 0
93 -10.12564 -2.64637 12.18723 0 0 0
94 -11.06692 -2.69870 12.13908 0 0 0
95 -11.62245 -2.87265 11.39596 0 0 0
96 -12.28269 -2.15315 11.48965 0 0 0
97 -11.92165 -1.36705 11.00768 0 0 0
98 -10.98490 -1.16308 10.88439 0 0 0
99 -11.08045 -0.71683 10.08694 0 0 0
100 -10.49028 -0.00895 9.66734 0 0 0
101 -10.26443 -4.86225 11.99285 0 0 0
102 -11.19718 -4.98774 11.64509 0 0 0
103 -11.87564 -4.79050 12.27751 0 0 0
104 -12.48361 -5.35958 12.84806 0 0 0
105 -13.10222 -6.04404 13.20793 0 0 0
106 -13.31269 -5.13481 13.52195 0 0 0
107 -13.42506 -4.19678 13.53280 0 0 0
108 -14.34797 -3.86581 13.68051 0 0 0
109 -15.28265 -4.14268 13.63116 0 0 0
110 -10.16999 -4.35173 10.89804 0 0 0
111 -9.50214 -4.77204 10.28285 0 0 0
112 -8.71442 -5.38394 10.22990 0 0 0
113 -8.39002 -5.78819 9.31094 0 0 0
114 -8.34658 -5.05834 8.66127 0 0 0
115 -8.99181 -5.40625 8.03950 0 0 0
116 -8.77867 -5.49320 7.11463 0 0 0
117 -8.74112 -5.72438 6.11782 0 0 0
118 -8.76109 -6.64972 6.45440 0 0 0
119 -9.10638 -6.77561 7.37167 0 0 0
120 -9.58211 -7.63395 7.26674 0 0 0
121 -10.21280 -8.35589 7.12308 0 0 0
122 -10.21401 -9.09850 6.42212 0 0 0
123 -9.46363 -9.69205 6.05993 0 0 0
124 -9.86722 -9.39774 5.17306 0 0 0
125 -9.82498 -8.52311 4.71001 0 0 0
126 -9.84575 -8.51413 3.75224 0 0 0
127 -10.67923 -8.29529 3.31834 0 0 0
128 -8.33970 -7.37139 6.97032 0 0 0
129 -7.98644 -7.01325 7.79668 0 0 0
130 -8.15969 -6.30315 8.39677 0 0 0
131 -7.28266 -6.25287 8.83777 0 0 0
132 -6.95580 -6.27374 7.90864 0 0 0
133 -6.84746 -5.40924 7.47377 0 0 0
134 -6.32245 -4.54875 7.48156 0 0 0
135 -7.26847 -4.33413 7.75089 0 0 0
136 -6.74632 -4.74613 8.42948 0 0 0
137 -8.44282 -6.89685 5.49736 0 0 0
138 -7.44598 -6.79308 5.03878 0 0 0
139 -6.48223 -6.62697 5.21845 0 0 0
140 -6.34086 -7.50019 4.85592 0 0 0
141 -5.42378 -7.18954 5.01169 0 0 0
142 -4.47765 -7.02913 5.10102 0 0 0
143 -3.81105 -7.06398 4.37012 0 0 0
144 -3.78402 -7.47020 3.42509 0 0 0
145 -4.23420 -8.04382 2.80190 0 0 0
146 -4.85405 -8.54114 3.36492 0 0 0
147 -4.00229 -8.93833 3.89338 0 0 0
148 -3.60765 -9.78450 4.41877 0 0 0
149 -3.17823 -10.66790 4.31852 0 0 0
150 -3.86171 -11.33430 4.14973 0 0 0
151 -3.34136 -12.00583 4.67165 0 0 0
152 -3.14931 -12.74754 4.01973 0 0 0
153 -2.82983 -13.20952 4.80466 0 0 0
154 -2.37802 -14.11121 4.36235 0 0 0
155 -4.10178 -8.90187 2.35878 0 0 0
156 -3.99085 -9.50573 1.53165 0 0 0
157 -3.64977 -10.18122 0.92038 0 0 0
158 -2.86254 -10.87464 0.81789 0 0 0
159 -2.09871 -11.34468 0.34442 0 0 0
160 -1.29585 -10.95893 -0.04435 0 0 0
161 -0.96104 -10.02061 0.13658 0 0 0
162 -0.56177 -9.13630 0.53361 0 0 0
163 0.17640 -9.11958 1.23756 0 0 0
164 -4.02425 -7.60418 1.98868 0 0 0
165 -3.18919 -8.07941 1.63108 0 0 0
166 -2.41149 -8.21904 1.07689 0 0 0
167 -2.27359 -7.52248 0.39152 0 0 0
168 -2.91663 -7.47083 -0.36124 0 0 0
169 -3.22041 -7.63024 -1.36755 0 0 0
170 -3.35003 -8.03641 -2.20550 0 0 0
171 -2.88160 -8.69328 -2.87118 0 0 0
172 -2.91394 -7.89129 -3.57817 0 0 0
173 -2.44286 -7.04323 -3.90043 0 0 0
174 -2.31296 -6.46382 -4.62179 0 0 0
175 -2.31570 -5.49389 -4.54262 0 0 0
176 -2.89489 -4.74056 -5.02377 0 0 0
177 -3.08822 -3.84492 -4.77539 0 0 0
178 -4.08431 -3.65591 -4.83352 0 0 0
179 -5.02925 -3.43692 -4.83562 0 0 0
180 -5.60918 -2.64404 -5.18230 0 0 0
181 -6.55429 -2.63817 -5.06382 0 0 0
182 -3.73302 -8.00055 -4.05933 0 0 0
183 -4.60683 -8.37765 -3.62341 0 0 0
184 -5.27367 -8.74610 -4.23217 0 0 0
185 -5.29421 -9.65030 -3.81551 0 0 0
186 -5.96417 -9.99433 -3.25512 0 0 0
187 -6.82086 -10.42746 -2.85786 0 0 0
188 -7.29045 -11.36161 -2.74628 0 0 0
189 -7.78072 -10.56669 -3.09548 0 0 0
190 -7.30336 -10.45263 -3.92891 0 0 0
191 -1.90388 -7.88438 -3.41093 0 0 0
192 -1.49864 -8.43425 -2.66648 0 0 0
193 -2.10372 -8.42126 -1.83569 0 0 0
194 -1.58866 -7.58505 -1.59407 0 0 0
195 -1.14137 -7.45066 -2.44807 0 0 0
196 -0.55375 -6.97374 -3.10703 0 0 0
197 -1.18585 -6.37806 -2.73066 0 0 0
198 -0.87224 -5.67000 -3.23933 0 0 0
199 -0.97946 -6.39883 -3.91560 0 0 0
ITEM: TIMESTEP
4000
ITEM: NUMBER OF ATOMS
199
ITEM: BOX BOUNDS pp pp pp
-1.0000000000000000e+03 1.0000000000000000e+03
-1.0000000000000000e+03 1.0000000000000000e+03
-1.0000000000000000e+03 1.0000000000000000e+03
ITEM: ATOMS id x y z ix iy iz
1 -0.05580 4.25189 6.35351 0 0 0
2 0.02977 3.49402 6.84364 0 0 0
3 -0.09254 2.71318 7.42186 0 0 0
4 -0.30991 2.02120 6.82662 0 0 0