bb112nuc5bl18bn4d30tot300V2

293 atoms
292 bonds
306 angles

1 atom types
1 bond types
1 angle types

-1000 1000 xlo xhi
-1000 1000 ylo yhi
-1000 1000 zlo zhi

Masses

1 1

Atoms

1	1	1	0.0	0.0	0.0	0	0	0
2	1	1	0.0	0.0	1.0	0	0	0
3	1	1	0.0	-0.49999999999999994	1.8660254037844388	0	0	0
4	1	1	0.0	0.0	2.7320508075688776	0	0	0
5	1	1	0.0	-0.49999999999999994	3.5980762113533165	0	0	0
6	1	1	0.0	0.0	4.464101615137755	0	0	0
7	1	1	0.0	-0.49999999999999994	5.330127018922194	0	0	0
8	1	1	0.0	0.0	6.196152422706632	0	0	0
9	1	1	0.0	-0.49999999999999994	7.06217782649107	0	0	0
10	1	1	0.0	0.0	7.928203230275509	0	0	0
11	1	1	0.0	-0.49999999999999994	8.794228634059948	0	0	0
12	1	1	0.0	0.0	9.660254037844387	0	0	0
13	1	1	0.0	-0.49999999999999994	10.526279441628827	0	0	0
14	1	1	0.0	0.0	11.392304845413266	0	0	0
15	1	1	0.0	-0.49999999999999994	12.258330249197705	0	0	0
16	1	1	0.0	0.0	13.124355652982144	0	0	0
17	1	1	0.0	-0.49999999999999994	13.990381056766584	0	0	0
18	1	1	0.0	0.0	14.856406460551023	0	0	0
19	1	1	0.0	-0.49999999999999994	15.722431864335462	0	0	0
20	1	1	0.25486731895237424	0.11904295713216412	16.46528344234758	0	0	0
21	1	1	0.5097346379047484	0.28372409503639995	17.418133258713514	0	0	0
22	1	1	0.7646019568571225	1.1912568109527544	17.751940117947285	0	0	0
23	1	1	1.0194692758094965	1.3559379488569903	18.70478993431322	0	0	0
24	1	1	1.2743365947618708	2.2634706647733447	19.03859679354699	0	0	0
25	1	1	1.529203913714245	2.4281518026775806	19.991446609912924	0	0	0
26	1	1	1.7840712326666193	3.335684518593935	20.325253469146695	0	0	0
27	1	1	2.0389385516189935	3.500365656498171	21.27810328551263	0	0	0
28	1	1	2.2938058705713678	4.407898372414525	21.6119101447464	0	0	0
29	1	1	2.548673189523742	4.572579510318761	22.564759961112333	0	0	0
30	1	1	2.8035405084761162	5.480112226235115	22.898566820346105	0	0	0
31	1	1	3.0584078274284905	5.644793364139351	23.851416636712038	0	0	0
32	1	1	3.3132751463808647	6.552326080055705	24.18522349594581	0	0	0
33	1	1	3.568142465333239	6.7170072179599405	25.138073312311743	0	0	0
34	1	1	3.823009784285613	7.624539933876295	25.471880171545514	0	0	0
35	1	1	4.077877103237987	7.78922107178053	26.424729987911448	0	0	0
36	1	1	4.332744422190361	8.696753787696885	26.75853684714522	0	0	0
37	1	1	4.587611741142735	8.86143492560112	27.711386663511153	0	0	0
38	1	1	0.6585127272728618	-1.2510271122056915	15.674273119006722	0	0	0
39	1	1	1.3170254545457232	-1.877356297642316	15.257052866034803	0	0	0
40	1	1	1.9755381818185844	-2.5518442284076808	15.590859725268574	0	0	0
41	1	1	2.634050909091446	-3.178173413844305	15.173639472296655	0	0	0
42	1	1	3.2925636363643074	-3.85266134460967	15.507446331530426	0	0	0
43	1	1	3.951076363637169	-4.478990530046294	15.090226078558507	0	0	0
44	1	1	4.60958909091003	-5.153478460811659	15.424032937792278	0	0	0
45	1	1	5.268101818182892	-5.779807646248283	15.006812684820359	0	0	0
46	1	1	5.926614545455753	-6.454295577013648	15.34061954405413	0	0	0
47	1	1	6.585127272728615	-7.080624762450272	14.92339929108221	0	0	0
48	1	1	7.243640000001476	-7.7551126932156365	15.257206150315982	0	0	0
49	1	1	7.902152727274338	-8.38144187865226	14.839985897344063	0	0	0
50	1	1	8.560665454547198	-9.055929809417625	15.173792756577834	0	0	0
51	1	1	9.219178181820059	-9.68225899485425	14.756572503605915	0	0	0
52	1	1	9.87769090909292	-10.356746925619614	15.090379362839686	0	0	0
53	1	1	10.53620363636578	-10.983076111056238	14.673159109867767	0	0	0
54	1	1	11.19471636363864	-11.657564041821603	15.006965969101538	0	0	0
55	1	1	11.853229090911501	-12.283893227258227	14.589745716129618	0	0	0
56	1	1	-0.913380046225237	-0.8687261337771284	15.89499469181391	0	0	0
57	1	1	-1.8267600924504737	-1.2743337464065645	15.860075417270552	0	0	0
58	1	1	-2.7401401386757103	-1.507378531557553	16.193882276504322	0	0	0
59	1	1	-3.653520184900947	-1.912986144186989	16.158963001960966	0	0	0
60	1	1	-4.5669002311261835	-2.146030929337978	16.492769861194738	0	0	0
61	1	1	-5.48028027735142	-2.551638541967414	16.457850586651382	0	0	0
62	1	1	-6.393660323576656	-2.784683327118403	16.791657445885154	0	0	0
63	1	1	-7.307040369801892	-3.190290939747839	16.756738171341798	0	0	0
64	1	1	-8.220420416027128	-3.423335724898828	17.09054503057557	0	0	0
65	1	1	-9.133800462252365	-3.828943337528264	17.055625756032214	0	0	0
66	1	1	-10.047180508477602	-4.061988122679253	17.389432615265985	0	0	0
67	1	1	-10.96056055470284	-4.467595735308689	17.35451334072263	0	0	0
68	1	1	-11.873940600928076	-4.700640520459677	17.6883201999564	0	0	0
69	1	1	-12.787320647153313	-5.106248133089113	17.653400925413045	0	0	0
70	1	1	-13.70070069337855	-5.339292918240101	17.987207784646817	0	0	0
71	1	1	-14.614080739603788	-5.744900530869537	17.95228851010346	0	0	0
72	1	1	-15.527460785829025	-5.977945316020525	18.286095369337232	0	0	0
73	1	1	-16.44084083205426	-6.383552928649961	18.251176094793877	0	0	0
74	1	1	-17.354220878279495	-6.6165977138009495	18.584982954027648	0	0	0
75	1	1	-17.538428172875857	-7.583087923980928	18.406197198879905	0	0	0
76	1	1	-17.72263546747222	-8.33070012093188	17.768119087997185	0	0	0
77	1	1	-17.90684276206858	-9.257098073030575	18.096531187294445	0	0	0
78	1	1	-18.091050056664944	-10.004710269981526	17.458453076411725	0	0	0
79	1	1	-18.275257351261306	-10.931108222080221	17.786865175708986	0	0	0
80	1	1	-18.45946464585767	-11.678720419031173	17.148787064826266	0	0	0
81	1	1	-18.64367194045403	-12.605118371129867	17.477199164123526	0	0	0
82	1	1	-18.827879235050393	-13.352730568080819	16.839121053240806	0	0	0
83	1	1	-19.012086529646755	-14.279128520179514	17.167533152538066	0	0	0
84	1	1	-19.196293824243117	-15.026740717130465	16.529455041655346	0	0	0
85	1	1	-19.38050111883948	-15.95313866922916	16.857867140952607	0	0	0
86	1	1	-19.56470841343584	-16.700750866180112	16.219789030069887	0	0	0
87	1	1	-19.748915708032204	-17.62714881827881	16.548201129367147	0	0	0
88	1	1	-19.933123002628566	-18.374761015229762	15.910123018484427	0	0	0
89	1	1	-20.117330297224928	-19.30115896732846	16.238535117781687	0	0	0
90	1	1	-20.30153759182129	-20.04877116427941	15.600457006898967	0	0	0
91	1	1	-20.485744886417653	-20.975169116378108	15.928869106196228	0	0	0
92	1	1	-20.669952181014015	-21.72278131332906	15.290790995313507	0	0	0
93	1	1	-18.034937077416288	-6.055367546116966	18.114189841170028	0	0	0
94	1	1	-18.71565327655308	-5.333931407103627	17.987086129350565	0	0	0
95	1	1	-19.396369475689873	-5.083288380947907	17.298752249847123	0	0	0
96	1	1	-20.077085674826666	-4.361852241934567	17.17164853802766	0	0	0
97	1	1	-20.75780187396346	-4.111209215778847	16.48331465852422	0	0	0
98	1	1	-21.43851807310025	-3.389773076765507	16.356210946704756	0	0	0
99	1	1	-22.119234272237044	-3.139130050609787	15.667877067201312	0	0	0
100	1	1	-22.799950471373837	-2.417693911596447	15.540773355381852	0	0	0
101	1	1	-23.48066667051063	-2.1670508854407267	14.852439475878407	0	0	0
102	1	1	-24.161382869647422	-1.445614746427387	14.725335764058947	0	0	0
103	1	1	-24.842099068784215	-1.1949717202716665	14.037001884555503	0	0	0
104	1	1	-25.522815267921008	-0.47353558125832695	13.909898172736042	0	0	0
105	1	1	-26.2035314670578	-0.22289255510260658	13.221564293232598	0	0	0
106	1	1	-26.884247666194593	0.498543583910733	13.094460581413138	0	0	0
107	1	1	-27.564963865331386	0.7491866100664534	12.406126701909693	0	0	0
108	1	1	-28.24568006446818	1.470622749079793	12.279022990090233	0	0	0
109	1	1	-28.92639626360497	1.7212657752355134	11.590689110586789	0	0	0
110	1	1	-29.607112462741764	2.442701914248853	11.463585398767329	0	0	0
111	1	1	-17.403974958098072	-6.444713514681132	19.56884287984755	0	0	0
112	1	1	-17.45372903791665	-6.787787394644178	20.50683266893297	0	0	0
113	1	1	-17.503483117735225	-6.147001348787321	21.27293825889857	0	0	0
114	1	1	-17.553237197553802	-6.490075228750367	22.210928047983987	0	0	0
115	1	1	-17.60299127737238	-5.849289182893511	22.97703363794959	0	0	0
116	1	1	-17.652745357190955	-6.192363062856557	23.915023427035006	0	0	0
117	1	1	-17.702499437009532	-5.5515770169997	24.681129017000607	0	0	0
118	1	1	-17.75225351682811	-5.894650896962746	25.619118806086025	0	0	0
119	1	1	-17.802007596646686	-5.25386485110589	26.385224396051626	0	0	0
120	1	1	-17.851761676465262	-5.596938731068936	27.323214185137044	0	0	0
121	1	1	-17.90151575628384	-4.956152685212079	28.089319775102645	0	0	0
122	1	1	-17.951269836102416	-5.299226565175125	29.027309564188062	0	0	0
123	1	1	-18.001023915920992	-4.658440519318269	29.793415154153664	0	0	0
124	1	1	-18.05077799573957	-5.001514399281315	30.73140494323908	0	0	0
125	1	1	-18.100532075558146	-4.3607283534244585	31.497510533204682	0	0	0
126	1	1	-18.150286155376723	-4.7038022333875045	32.4355003222901	0	0	0
127	1	1	-18.2000402351953	-4.063016187530648	33.2016059122557	0	0	0
128	1	1	-18.249794315013876	-4.406090067493694	34.13959570134112	0	0	0
129	1	1	-18.299548394832453	-3.765304021636837	34.90570129130672	0	0	0
130	1	1	-19.2535914910732	-3.6482724061294496	35.18157331143036	0	0	0
131	1	1	-20.207634587313944	-3.684856064115942	35.47900129680447	0	0	0
132	1	1	-21.16167768355469	-3.445567701978788	35.65939766667118	0	0	0
133	1	1	-22.115720779795435	-3.4821513599652802	35.95682565204528	0	0	0
134	1	1	-23.06976387603618	-3.2428629978281265	36.137222021911995	0	0	0
135	1	1	-24.023806972276926	-3.2794466558146187	36.434650007286095	0	0	0
136	1	1	-24.97785006851767	-3.040158293677465	36.61504637715281	0	0	0
137	1	1	-25.931893164758417	-3.076741951663957	36.91247436252691	0	0	0
138	1	1	-26.885936260999163	-2.8374535895268034	37.09287073239362	0	0	0
139	1	1	-27.83997935723991	-2.8740372475132956	37.39029871776772	0	0	0
140	1	1	-28.794022453480654	-2.634748885376142	37.570695087634434	0	0	0
141	1	1	-29.7480655497214	-2.671332543362634	37.86812307300853	0	0	0
142	1	1	-30.702108645962145	-2.4320441812254803	38.04851944287525	0	0	0
143	1	1	-31.65615174220289	-2.4686278392119725	38.345947428249346	0	0	0
144	1	1	-32.61019483844364	-2.2293394770748187	38.52634379811606	0	0	0
145	1	1	-33.564237934684385	-2.265923135061311	38.82377178349016	0	0	0
146	1	1	-34.51828103092513	-2.026634772924157	39.00416815335687	0	0	0
147	1	1	-35.47232412716588	-2.0632184309106494	39.30159613873097	0	0	0
148	1	1	-17.922884212512905	-2.8818825005451902	34.626971117429434	0	0	0
149	1	1	-17.546220030193354	-1.977451934091289	34.82729446659628	0	0	0
150	1	1	-17.169555847873802	-1.3517515415146737	34.144196294671474	0	0	0
151	1	1	-16.79289166555425	-0.4473209750607724	34.34451964383832	0	0	0
152	1	1	-16.4162274832347	0.17837941751584308	33.66142147191351	0	0	0
153	1	1	-16.039563300915148	1.0828099839697445	33.86174482108036	0	0	0
154	1	1	-15.662899118595599	1.7085103765463598	33.17864664915555	0	0	0
155	1	1	-15.286234936276049	2.612940943000261	33.3789699983224	0	0	0
156	1	1	-14.9095707539565	3.2386413355768764	32.69587182639759	0	0	0
157	1	1	-14.53290657163695	4.143071902030778	32.896195175564436	0	0	0
158	1	1	-14.1562423893174	4.768772294607394	32.21309700363963	0	0	0
159	1	1	-13.77957820699785	5.673202861061295	32.413420352806476	0	0	0
160	1	1	-13.402914024678301	6.298903253637911	31.730322180881668	0	0	0
161	1	1	-13.026249842358752	7.203333820091812	31.93064553004851	0	0	0
162	1	1	-12.649585660039202	7.829034212668428	31.2475473581237	0	0	0
163	1	1	-12.272921477719652	8.733464779122329	31.44787070729054	0	0	0
164	1	1	-11.896257295400103	9.359165171698944	30.764772535365733	0	0	0
165	1	1	-11.519593113080553	10.263595738152846	30.965095884532573	0	0	0
166	1	1	-17.77199424026617	-4.124060826010953	35.67575334754391	0	0	0
167	1	1	-17.24444008569989	-4.819779360498058	36.1632595882947	0	0	0
168	1	1	-16.716885931133607	-4.745445838747972	37.00952263341961	0	0	0
169	1	1	-16.189331776567325	-5.441164373235076	37.4970288741704	0	0	0
170	1	1	-15.661777622001042	-5.36683085148499	38.343291919295304	0	0	0
171	1	1	-15.134223467434758	-6.062549385972095	38.83079816004609	0	0	0
172	1	1	-14.606669312868474	-5.988215864222009	39.677061205171	0	0	0
173	1	1	-14.07911515830219	-6.6839343987091135	40.16456744592179	0	0	0
174	1	1	-13.551561003735907	-6.6096008769590275	41.0108304910467	0	0	0
175	1	1	-13.024006849169623	-7.305319411446132	41.49833673179749	0	0	0
176	1	1	-12.49645269460334	-7.230985889696046	42.344599776922394	0	0	0
177	1	1	-11.968898540037056	-7.926704424183151	42.83210601767318	0	0	0
178	1	1	-11.441344385470773	-7.852370902433065	43.67836906279809	0	0	0
179	1	1	-10.913790230904489	-8.54808943692017	44.16587530354888	0	0	0
180	1	1	-10.386236076338205	-8.473755915170084	45.01213834867379	0	0	0
181	1	1	-9.858681921771922	-9.169474449657189	45.49964458942458	0	0	0
182	1	1	-9.331127767205638	-9.095140927907103	46.345907634549484	0	0	0
183	1	1	-8.803573612639354	-9.790859462394208	46.83341387530027	0	0	0
184	1	1	-8.27601945807307	-9.716525940644122	47.67967692042518	0	0	0
185	1	1	-7.423475980632454	-9.225886329060561	47.49955920719688	0	0	0
186	1	1	-6.570932503191837	-8.710921104712119	47.5888924976614	0	0	0
187	1	1	-5.718389025751219	-8.376073593591975	47.187586176542354	0	0	0
188	1	1	-4.865845548310602	-7.861108369243533	47.27691946700687	0	0	0
189	1	1	-4.013302070869984	-7.526260858123389	46.875613145887826	0	0	0
190	1	1	-3.1607585934293665	-7.011295633774946	46.96494643635234	0	0	0
191	1	1	-2.308215115988749	-6.676448122654802	46.5636401152333	0	0	0
192	1	1	-1.4556716385481312	-6.1614828983063585	46.652973405697814	0	0	0
193	1	1	-0.6031281611075134	-5.826635387186214	46.25166708457877	0	0	0
194	1	1	0.24941531633310432	-5.311670162837771	46.341000375043286	0	0	0
195	1	1	1.101958793773722	-4.976822651717627	45.93969405392424	0	0	0
196	1	1	1.9545022712143398	-4.461857427369184	46.02902734438876	0	0	0
197	1	1	2.8070457486549576	-4.1270099162490395	45.627721023269714	0	0	0
198	1	1	3.6595892260955756	-3.612044691900597	45.71705431373423	0	0	0
199	1	1	4.512132703536193	-3.277197180780453	45.31574799261519	0	0	0
200	1	1	5.364676180976811	-2.7622319564320104	45.4050812830797	0	0	0
201	1	1	6.217219658417428	-2.4273844453118665	45.00377496196066	0	0	0
202	1	1	7.069763135858046	-1.9124192209634239	45.093108252425175	0	0	0
203	1	1	-8.066961819994543	-10.631734099779484	48.02418951731111	0	0	0
204	1	1	-7.857904181916014	-11.596583913784464	47.86494209857038	0	0	0
205	1	1	-7.648846543837486	-12.216921130903518	48.62090283896502	0	0	0
206	1	1	-7.439788905758958	-13.181770944908498	48.4616554202243	0	0	0
207	1	1	-7.230731267680429	-13.802108162027553	49.21761616061894	0	0	0
208	1	1	-7.021673629601901	-14.766957976032533	49.05836874187821	0	0	0
209	1	1	-6.812615991523373	-15.387295193151587	49.81432948227285	0	0	0
210	1	1	-6.6035583534448445	-16.352145007156565	49.65508206353213	0	0	0
211	1	1	-6.394500715366316	-16.97248222427562	50.41104280392677	0	0	0
212	1	1	-6.185443077287788	-17.937332038280598	50.25179538518604	0	0	0
213	1	1	-5.97638543920926	-18.557669255399652	51.007756125580684	0	0	0
214	1	1	-5.767327801130731	-19.52251906940463	50.84850870683996	0	0	0
215	1	1	-5.558270163052203	-20.142856286523685	51.6044694472346	0	0	0
216	1	1	-5.349212524973675	-21.107706100528663	51.44522202849387	0	0	0
217	1	1	-5.1401548868951465	-21.728043317647717	52.201182768888515	0	0	0
218	1	1	-4.931097248816618	-22.692893131652696	52.04193535014779	0	0	0
219	1	1	-4.72203961073809	-23.31323034877175	52.79789609054243	0	0	0
220	1	1	-4.512981972659562	-24.278080162776728	52.638648671801704	0	0	0
221	1	1	-8.80931698735772	-9.21751827479878	48.36274726430381	0	0	0
222	1	1	-9.342614516642369	-9.126900131432851	49.20380736759715	0	0	0
223	1	1	-9.875912045927018	-8.353211644188292	49.54585980504515	0	0	0
224	1	1	-10.409209575211667	-8.262593500822364	50.386919908338484	0	0	0
225	1	1	-10.942507104496316	-7.4889050135778055	50.72897234578648	0	0	0
226	1	1	-11.475804633780966	-7.398286870211877	51.57003244907982	0	0	0
227	1	1	-12.009102163065615	-6.624598382967319	51.912084886527815	0	0	0
228	1	1	-12.542399692350264	-6.533980239601391	52.75314498982115	0	0	0
229	1	1	-13.075697221634913	-5.760291752356832	53.09519742726915	0	0	0
230	1	1	-13.608994750919562	-5.669673608990904	53.936257530562486	0	0	0
231	1	1	-14.142292280204211	-4.895985121746346	54.27830996801048	0	0	0
232	1	1	-14.67558980948886	-4.805366978380418	55.11937007130382	0	0	0
233	1	1	-15.20888733877351	-4.031678491135859	55.46142250875182	0	0	0
234	1	1	-15.742184868058159	-3.9410603477699313	56.302482612045154	0	0	0
235	1	1	-16.27548239734281	-3.167371860525373	56.64453504949315	0	0	0
236	1	1	-16.80877992662746	-3.076753717159445	57.48559515278649	0	0	0
237	1	1	-17.342077455912108	-2.3030652299148864	57.827647590234484	0	0	0
238	1	1	-17.875374985196757	-2.2124470865489583	58.66870769352782	0	0	0
239	1	1	-18.408672514481406	-1.4387585993043999	59.01076013097582	0	0	0
240	1	1	-18.616200344399672	-1.578408744967241	59.97896983792249	0	0	0
241	1	1	-18.82372817431794	-2.183454172226795	60.74763896749758	0	0	0
242	1	1	-19.031256004236205	-1.8202898925396762	61.65595824273551	0	0	0
243	1	1	-19.23878383415447	-2.4253353197992302	62.424627372310596	0	0	0
244	1	1	-19.446311664072738	-2.0621710401121116	63.332946647548525	0	0	0
245	1	1	-19.653839493991004	-2.6672164673716656	64.10161577712361	0	0	0
246	1	1	-19.86136732390927	-2.304052187684547	65.00993505236154	0	0	0
247	1	1	-20.068895153827537	-2.909097614944101	65.77860418193663	0	0	0
248	1	1	-20.276422983745803	-2.5459333352569824	66.68692345717456	0	0	0
249	1	1	-20.48395081366407	-3.1509787625165364	67.45559258674965	0	0	0
250	1	1	-20.691478643582336	-2.787814482829418	68.36391186198757	0	0	0
251	1	1	-20.899006473500602	-3.392859910088972	69.13258099156266	0	0	0
252	1	1	-21.10653430341887	-3.029695630401853	70.04090026680059	0	0	0
253	1	1	-21.314062133337135	-3.634741057661407	70.80956939637568	0	0	0
254	1	1	-21.5215899632554	-3.2715767779742886	71.71788867161361	0	0	0
255	1	1	-21.729117793173668	-3.8766222052338426	72.4865578011887	0	0	0
256	1	1	-21.936645623091934	-3.513457925546724	73.39487707642662	0	0	0
257	1	1	-22.1441734530102	-4.118503352806278	74.16354620600171	0	0	0
258	1	1	-19.262037488526886	-1.3672314672558685	58.494376465032296	0	0	0
259	1	1	-20.115402462572366	-1.0470953208702372	58.082938658250136	0	0	0
260	1	1	-20.968767436617846	-1.2433428404281242	57.599973719419445	0	0	0
261	1	1	-21.822132410663325	-0.9232066940424928	57.188535912637285	0	0	0
262	1	1	-22.675497384708805	-1.1194542136003798	56.705570973806594	0	0	0
263	1	1	-23.528862358754285	-0.7993180672147484	56.294133167024434	0	0	0
264	1	1	-24.382227332799765	-0.9955655867726354	55.81116822819374	0	0	0
265	1	1	-25.235592306845245	-0.675429440387004	55.39973042141158	0	0	0
266	1	1	-26.088957280890725	-0.871676959944891	54.91676548258089	0	0	0
267	1	1	-26.942322254936204	-0.5515408135592597	54.50532767579873	0	0	0
268	1	1	-27.795687228981684	-0.7477883331171467	54.02236273696804	0	0	0
269	1	1	-28.649052203027164	-0.4276521867315153	53.61092493018588	0	0	0
270	1	1	-29.502417177072644	-0.6238997062894023	53.12795999135519	0	0	0
271	1	1	-30.355782151118124	-0.3037635599037709	52.71652218457303	0	0	0
272	1	1	-31.209147125163604	-0.5000110794616579	52.23355724574234	0	0	0
273	1	1	-32.06251209920909	-0.17987493307602653	51.82211943896018	0	0	0
274	1	1	-32.91587707325457	-0.37612245263391353	51.33915450012949	0	0	0
275	1	1	-33.769242047300054	-0.05598630624828216	50.92771669334733	0	0	0
276	1	1	-17.881834830380573	-0.5958480138327888	58.90147243948598	0	0	0
277	1	1	-17.35499714627974	0.18877781204936006	59.22828181507062	0	0	0
278	1	1	-16.828159462178906	0.86411594644167	58.71218060518366	0	0	0
279	1	1	-16.301321778078073	1.648741772323819	59.03898998076831	0	0	0
280	1	1	-15.774484093977241	2.324079906716129	58.522888770881345	0	0	0
281	1	1	-15.24764640987641	3.108705732598278	58.84969814646599	0	0	0
282	1	1	-14.720808725775578	3.7840438669905883	58.33359693657903	0	0	0
283	1	1	-14.193971041674747	4.568669692872737	58.66040631216367	0	0	0
284	1	1	-13.667133357573915	5.2440078272650466	58.14430510227671	0	0	0
285	1	1	-13.140295673473084	6.028633653147195	58.471114477861356	0	0	0
286	1	1	-12.613457989372252	6.703971787539505	57.955013267974394	0	0	0
287	1	1	-12.08662030527142	7.488597613421653	58.28182264355904	0	0	0
288	1	1	-11.559782621170589	8.163935747813964	57.76572143367208	0	0	0
289	1	1	-11.032944937069757	8.948561573696113	58.09253080925672	0	0	0
290	1	1	-10.506107252968926	9.623899708088423	57.57642959936976	0	0	0
291	1	1	-9.979269568868094	10.408525533970572	57.903238974954405	0	0	0
292	1	1	-9.452431884767263	11.083863668362882	57.38713776506744	0	0	0
293	1	1	-8.925594200666431	11.868489494245031	57.71394714065209	0	0	0

Bonds

1	1	1	2
2	1	2	3
3	1	3	4
4	1	4	5
5	1	5	6
6	1	6	7
7	1	7	8
8	1	8	9
9	1	9	10
10	1	10	11
11	1	11	12
12	1	12	13
13	1	13	14
14	1	14	15
15	1	15	16
16	1	16	17
17	1	17	18
18	1	18	19
19	1	19	20
20	1	19	38
21	1	19	56
22	1	20	21
23	1	21	22
24	1	22	23
25	1	23	24
26	1	24	25
27	1	25	26
28	1	26	27
29	1	27	28
30	1	28	29
31	1	29	30
32	1	30	31
33	1	31	32
34	1	32	33
35	1	33	34
36	1	34	35
37	1	35	36
38	1	36	37
39	1	38	39
40	1	39	40
41	1	40	41
42	1	41	42
43	1	42	43
44	1	43	44
45	1	44	45
46	1	45	46
47	1	46	47
48	1	47	48
49	1	48	49
50	1	49	50
51	1	50	51
52	1	51	52
53	1	52	53
54	1	53	54
55	1	54	55
56	1	56	57
57	1	57	58
58	1	58	59
59	1	59	60
60	1	60	61
61	1	61	62
62	1	62	63
63	1	63	64
64	1	64	65
65	1	65	66
66	1	66	67
67	1	67	68
68	1	68	69
69	1	69	70
70	1	70	71
71	1	71	72
72	1	72	73
73	1	73	74
74	1	74	75
75	1	74	93
76	1	74	111
77	1	75	76
78	1	76	77
79	1	77	78
80	1	78	79
81	1	79	80
82	1	80	81
83	1	81	82
84	1	82	83
85	1	83	84
86	1	84	85
87	1	85	86
88	1	86	87
89	1	87	88
90	1	88	89
91	1	89	90
92	1	90	91
93	1	91	92
94	1	93	94
95	1	94	95
96	1	95	96
97	1	96	97
98	1	97	98
99	1	98	99
100	1	99	100
101	1	100	101
102	1	101	102
103	1	102	103
104	1	103	104
105	1	104	105
106	1	105	106
107	1	106	107
108	1	107	108
109	1	108	109
110	1	109	110
111	1	111	112
112	1	112	113
113	1	113	114
114	1	114	115
115	1	115	116
116	1	116	117
117	1	117	118
118	1	118	119
119	1	119	120
120	1	120	121
121	1	121	122
122	1	122	123
123	1	123	124
124	1	124	125
125	1	125	126
126	1	126	127
127	1	127	128
128	1	128	129
129	1	129	130
130	1	129	148
131	1	129	166
132	1	130	131
133	1	131	132
134	1	132	133
135	1	133	134
136	1	134	135
137	1	135	136
138	1	136	137
139	1	137	138
140	1	138	139
141	1	139	140
142	1	140	141
143	1	141	142
144	1	142	143
145	1	143	144
146	1	144	145
147	1	145	146
148	1	146	147
149	1	148	149
150	1	149	150
151	1	150	151
152	1	151	152
153	1	152	153
154	1	153	154
155	1	154	155
156	1	155	156
157	1	156	157
158	1	157	158
159	1	158	159
160	1	159	160
161	1	160	161
162	1	161	162
163	1	162	163
164	1	163	164
165	1	164	165
166	1	166	167
167	1	167	168
168	1	168	169
169	1	169	170
170	1	170	171
171	1	171	172
172	1	172	173
173	1	173	174
174	1	174	175
175	1	175	176
176	1	176	177
177	1	177	178
178	1	178	179
179	1	179	180
180	1	180	181
181	1	181	182
182	1	182	183
183	1	183	184
184	1	184	185
185	1	184	203
186	1	184	221
187	1	185	186
188	1	186	187
189	1	187	188
190	1	188	189
191	1	189	190
192	1	190	191
193	1	191	192
194	1	192	193
195	1	193	194
196	1	194	195
197	1	195	196
198	1	196	197
199	1	197	198
200	1	198	199
201	1	199	200
202	1	200	201
203	1	201	202
204	1	203	204
205	1	204	205
206	1	205	206
207	1	206	207
208	1	207	208
209	1	208	209
210	1	209	210
211	1	210	211
212	1	211	212
213	1	212	213
214	1	213	214
215	1	214	215
216	1	215	216
217	1	216	217
218	1	217	218
219	1	218	219
220	1	219	220
221	1	221	222
222	1	222	223
223	1	223	224
224	1	224	225
225	1	225	226
226	1	226	227
227	1	227	228
228	1	228	229
229	1	229	230
230	1	230	231
231	1	231	232
232	1	232	233
233	1	233	234
234	1	234	235
235	1	235	236
236	1	236	237
237	1	237	238
238	1	238	239
239	1	239	240
240	1	239	258
241	1	239	276
242	1	240	241
243	1	241	242
244	1	242	243
245	1	243	244
246	1	244	245
247	1	245	246
248	1	246	247
249	1	247	248
250	1	248	249
251	1	249	250
252	1	250	251
253	1	251	252
254	1	252	253
255	1	253	254
256	1	254	255
257	1	255	256
258	1	256	257
259	1	258	259
260	1	259	260
261	1	260	261
262	1	261	262
263	1	262	263
264	1	263	264
265	1	264	265
266	1	265	266
267	1	266	267
268	1	267	268
269	1	268	269
270	1	269	270
271	1	270	271
272	1	271	272
273	1	272	273
274	1	273	274
275	1	274	275
276	1	276	277
277	1	277	278
278	1	278	279
279	1	279	280
280	1	280	281
281	1	281	282
282	1	282	283
283	1	283	284
284	1	284	285
285	1	285	286
286	1	286	287
287	1	287	288
288	1	288	289
289	1	289	290
290	1	290	291
291	1	291	292
292	1	292	293

Angles

1	1	1	2	3
2	1	2	3	4
3	1	3	4	5
4	1	4	5	6
5	1	5	6	7
6	1	6	7	8
7	1	7	8	9
8	1	8	9	10
9	1	9	10	11
10	1	10	11	12
11	1	11	12	13
12	1	12	13	14
13	1	13	14	15
14	1	14	15	16
15	1	15	16	17
16	1	16	17	18
17	1	17	18	19
18	1	18	19	20
19	1	18	19	39
20	1	18	19	58
21	1	19	20	21
22	1	19	38	39
23	1	19	56	57
24	1	20	19	39
25	1	20	19	58
26	1	20	21	22
27	1	21	22	23
28	1	22	23	24
29	1	23	24	25
30	1	24	25	26
31	1	25	26	27
32	1	26	27	28
33	1	27	28	29
34	1	28	29	30
35	1	29	30	31
36	1	30	31	32
37	1	31	32	33
38	1	32	33	34
39	1	33	34	35
40	1	34	35	36
41	1	35	36	37
42	1	38	39	40
43	1	39	19	58
44	1	39	40	41
45	1	40	41	42
46	1	41	42	43
47	1	42	43	44
48	1	43	44	45
49	1	44	45	46
50	1	45	46	47
51	1	46	47	48
52	1	47	48	49
53	1	48	49	50
54	1	49	50	51
55	1	50	51	52
56	1	51	52	53
57	1	52	53	54
58	1	53	54	55
59	1	56	57	58
60	1	57	58	59
61	1	58	59	60
62	1	59	60	61
63	1	60	61	62
64	1	61	62	63
65	1	62	63	64
66	1	63	64	65
67	1	64	65	66
68	1	65	66	67
69	1	66	67	68
70	1	67	68	69
71	1	68	69	70
72	1	69	70	71
73	1	70	71	72
74	1	71	72	73
75	1	72	73	74
76	1	73	74	75
77	1	73	74	94
78	1	73	74	113
79	1	74	75	76
80	1	74	93	94
81	1	74	111	112
82	1	75	74	94
83	1	75	74	113
84	1	75	76	77
85	1	76	77	78
86	1	77	78	79
87	1	78	79	80
88	1	79	80	81
89	1	80	81	82
90	1	81	82	83
91	1	82	83	84
92	1	83	84	85
93	1	84	85	86
94	1	85	86	87
95	1	86	87	88
96	1	87	88	89
97	1	88	89	90
98	1	89	90	91
99	1	90	91	92
100	1	93	94	95
101	1	94	74	113
102	1	94	95	96
103	1	95	96	97
104	1	96	97	98
105	1	97	98	99
106	1	98	99	100
107	1	99	100	101
108	1	100	101	102
109	1	101	102	103
110	1	102	103	104
111	1	103	104	105
112	1	104	105	106
113	1	105	106	107
114	1	106	107	108
115	1	107	108	109
116	1	108	109	110
117	1	111	112	113
118	1	112	113	114
119	1	113	114	115
120	1	114	115	116
121	1	115	116	117
122	1	116	117	118
123	1	117	118	119
124	1	118	119	120
125	1	119	120	121
126	1	120	121	122
127	1	121	122	123
128	1	122	123	124
129	1	123	124	125
130	1	124	125	126
131	1	125	126	127
132	1	126	127	128
133	1	127	128	129
134	1	128	129	130
135	1	128	129	149
136	1	128	129	168
137	1	129	130	131
138	1	129	148	149
139	1	129	166	167
140	1	130	129	149
141	1	130	129	168
142	1	130	131	132
143	1	131	132	133
144	1	132	133	134
145	1	133	134	135
146	1	134	135	136
147	1	135	136	137
148	1	136	137	138
149	1	137	138	139
150	1	138	139	140
151	1	139	140	141
152	1	140	141	142
153	1	141	142	143
154	1	142	143	144
155	1	143	144	145
156	1	144	145	146
157	1	145	146	147
158	1	148	149	150
159	1	149	129	168
160	1	149	150	151
161	1	150	151	152
162	1	151	152	153
163	1	152	153	154
164	1	153	154	155
165	1	154	155	156
166	1	155	156	157
167	1	156	157	158
168	1	157	158	159
169	1	158	159	160
170	1	159	160	161
171	1	160	161	162
172	1	161	162	163
173	1	162	163	164
174	1	163	164	165
175	1	166	167	168
176	1	167	168	169
177	1	168	169	170
178	1	169	170	171
179	1	170	171	172
180	1	171	172	173
181	1	172	173	174
182	1	173	174	175
183	1	174	175	176
184	1	175	176	177
185	1	176	177	178
186	1	177	178	179
187	1	178	179	180
188	1	179	180	181
189	1	180	181	182
190	1	181	182	183
191	1	182	183	184
192	1	183	184	185
193	1	183	184	204
194	1	183	184	223
195	1	184	185	186
196	1	184	203	204
197	1	184	221	222
198	1	185	184	204
199	1	185	184	223
200	1	185	186	187
201	1	186	187	188
202	1	187	188	189
203	1	188	189	190
204	1	189	190	191
205	1	190	191	192
206	1	191	192	193
207	1	192	193	194
208	1	193	194	195
209	1	194	195	196
210	1	195	196	197
211	1	196	197	198
212	1	197	198	199
213	1	198	199	200
214	1	199	200	201
215	1	200	201	202
216	1	203	204	205
217	1	204	184	223
218	1	204	205	206
219	1	205	206	207
220	1	206	207	208
221	1	207	208	209
222	1	208	209	210
223	1	209	210	211
224	1	210	211	212
225	1	211	212	213
226	1	212	213	214
227	1	213	214	215
228	1	214	215	216
229	1	215	216	217
230	1	216	217	218
231	1	217	218	219
232	1	218	219	220
233	1	221	222	223
234	1	222	223	224
235	1	223	224	225
236	1	224	225	226
237	1	225	226	227
238	1	226	227	228
239	1	227	228	229
240	1	228	229	230
241	1	229	230	231
242	1	230	231	232
243	1	231	232	233
244	1	232	233	234
245	1	233	234	235
246	1	234	235	236
247	1	235	236	237
248	1	236	237	238
249	1	237	238	239
250	1	238	239	240
251	1	238	239	258
252	1	238	239	276
253	1	239	240	241
254	1	239	258	259
255	1	239	276	277
256	1	240	239	258
257	1	240	239	276
258	1	240	241	242
259	1	241	242	243
260	1	242	243	244
261	1	243	244	245
262	1	244	245	246
263	1	245	246	247
264	1	246	247	248
265	1	247	248	249
266	1	248	249	250
267	1	249	250	251
268	1	250	251	252
269	1	251	252	253
270	1	252	253	254
271	1	253	254	255
272	1	254	255	256
273	1	255	256	257
274	1	258	239	276
275	1	258	259	260
276	1	259	260	261
277	1	260	261	262
278	1	261	262	263
279	1	262	263	264
280	1	263	264	265
281	1	264	265	266
282	1	265	266	267
283	1	266	267	268
284	1	267	268	269
285	1	268	269	270
286	1	269	270	271
287	1	270	271	272
288	1	271	272	273
289	1	272	273	274
290	1	273	274	275
291	1	276	277	278
292	1	277	278	279
293	1	278	279	280
294	1	279	280	281
295	1	280	281	282
296	1	281	282	283
297	1	282	283	284
298	1	283	284	285
299	1	284	285	286
300	1	285	286	287
301	1	286	287	288
302	1	287	288	289
303	1	288	289	290
304	1	289	290	291
305	1	290	291	292
306	1	291	292	293
