bb225nuc5bl37bn4d30tot600V2

597 atoms
596 bonds
610 angles

1 atom types
1 bond types
1 angle types

-1000 1000 xlo xhi
-1000 1000 ylo yhi
-1000 1000 zlo zhi

Masses

1 1

Atoms

1	1	1	0.0	0.0	0.0	0	0	0
2	1	1	0.0	0.0	1.0	0	0	0
3	1	1	0.0	-0.49999999999999994	1.8660254037844388	0	0	0
4	1	1	0.0	0.0	2.7320508075688776	0	0	0
5	1	1	0.0	-0.49999999999999994	3.5980762113533165	0	0	0
6	1	1	0.0	0.0	4.464101615137755	0	0	0
7	1	1	0.0	-0.49999999999999994	5.330127018922194	0	0	0
8	1	1	0.0	0.0	6.196152422706632	0	0	0
9	1	1	0.0	-0.49999999999999994	7.06217782649107	0	0	0
10	1	1	0.0	0.0	7.928203230275509	0	0	0
11	1	1	0.0	-0.49999999999999994	8.794228634059948	0	0	0
12	1	1	0.0	0.0	9.660254037844387	0	0	0
13	1	1	0.0	-0.49999999999999994	10.526279441628827	0	0	0
14	1	1	0.0	0.0	11.392304845413266	0	0	0
15	1	1	0.0	-0.49999999999999994	12.258330249197705	0	0	0
16	1	1	0.0	0.0	13.124355652982144	0	0	0
17	1	1	0.0	-0.49999999999999994	13.990381056766584	0	0	0
18	1	1	0.0	0.0	14.856406460551023	0	0	0
19	1	1	0.0	-0.49999999999999994	15.722431864335462	0	0	0
20	1	1	0.0	0.0	16.5884572681199	0	0	0
21	1	1	0.0	-0.49999999999999994	17.454482671904337	0	0	0
22	1	1	0.0	0.0	18.320508075688775	0	0	0
23	1	1	0.0	-0.49999999999999994	19.186533479473212	0	0	0
24	1	1	0.0	0.0	20.05255888325765	0	0	0
25	1	1	0.0	-0.49999999999999994	20.918584287042087	0	0	0
26	1	1	0.0	0.0	21.784609690826525	0	0	0
27	1	1	0.0	-0.49999999999999994	22.650635094610962	0	0	0
28	1	1	0.0	0.0	23.5166604983954	0	0	0
29	1	1	0.0	-0.49999999999999994	24.382685902179837	0	0	0
30	1	1	0.0	0.0	25.248711305964274	0	0	0
31	1	1	0.0	-0.49999999999999994	26.114736709748712	0	0	0
32	1	1	0.0	0.0	26.98076211353315	0	0	0
33	1	1	0.0	-0.49999999999999994	27.846787517317587	0	0	0
34	1	1	0.0	0.0	28.712812921102024	0	0	0
35	1	1	0.0	-0.49999999999999994	29.578838324886462	0	0	0
36	1	1	0.0	0.0	30.4448637286709	0	0	0
37	1	1	0.0	-0.49999999999999994	31.310889132455337	0	0	0
38	1	1	0.0	0.0	32.17691453623978	0	0	0
39	1	1	0.1401524020639625	0.9741813951858359	31.999917605561635	0	0	0
40	1	1	0.2803048041279248	1.906345696650007	32.33372446479541	0	0	0
41	1	1	0.4204572061918871	2.6615130674360357	31.693349928843347	0	0	0
42	1	1	0.5606096082558494	3.593677368900207	32.02715678807712	0	0	0
43	1	1	0.7007620103198117	4.3488447396862355	31.38678225212506	0	0	0
44	1	1	0.840914412383774	5.281009041150407	31.72058911135883	0	0	0
45	1	1	0.9810668144477362	6.036176411936435	31.080214575406767	0	0	0
46	1	1	1.1212192165116985	6.968340713400607	31.41402143464054	0	0	0
47	1	1	1.2613716185756607	7.723508084186635	30.773646898688476	0	0	0
48	1	1	1.401524020639623	8.655672385650806	31.107453757922247	0	0	0
49	1	1	1.541676422703585	9.410839756436834	30.467079221970184	0	0	0
50	1	1	1.6818288247675472	10.343004057901005	30.800886081203956	0	0	0
51	1	1	1.8219812268315094	11.098171428687033	30.160511545251893	0	0	0
52	1	1	1.9621336288954716	12.030335730151204	30.494318404485664	0	0	0
53	1	1	2.102286030959434	12.785503100937232	29.8539438685336	0	0	0
54	1	1	2.242438433023396	13.717667402401403	30.187750727767373	0	0	0
55	1	1	2.3825908350873584	14.472834773187431	29.54737619181531	0	0	0
56	1	1	2.5227432371513205	15.404999074651602	29.88118305104908	0	0	0
57	1	1	2.6628956392152827	16.160166445437632	29.24080851509702	0	0	0
58	1	1	2.803048041279245	17.0923307469018	29.57461537433079	0	0	0
59	1	1	2.943200443343207	17.84749811768783	28.934240838378727	0	0	0
60	1	1	3.0833528454071693	18.779662419152004	29.2680476976125	0	0	0
61	1	1	3.2235052474711314	19.534829789938033	28.627673161660436	0	0	0
62	1	1	3.3636576495350936	20.466994091402206	28.961480020894207	0	0	0
63	1	1	3.503810051599056	21.222161462188236	28.321105484942144	0	0	0
64	1	1	3.643962453663018	22.15432576365241	28.654912344175916	0	0	0
65	1	1	3.78411485572698	22.90949313443844	28.014537808223853	0	0	0
66	1	1	3.9242672577909423	23.84165743590261	28.348344667457624	0	0	0
67	1	1	4.064419659854905	24.59682480668864	27.70797013150556	0	0	0
68	1	1	4.204572061918867	25.528989108152814	28.041776990739333	0	0	0
69	1	1	4.344724463982829	26.284156478938844	27.40140245478727	0	0	0
70	1	1	4.4848768660467915	27.216320780403016	27.73520931402104	0	0	0
71	1	1	4.625029268110754	27.971488151189046	27.09483477806898	0	0	0
72	1	1	4.765181670174716	28.90365245265322	27.42864163730275	0	0	0
73	1	1	4.905334072238678	29.65881982343925	26.788267101350687	0	0	0
74	1	1	5.04548647430264	30.59098412490342	27.12207396058446	0	0	0
75	1	1	5.185638876366602	31.34615149568945	26.481699424632396	0	0	0
76	1	1	0.7372017645369661	-0.34184985471556445	32.759728601954166	0	0	0
77	1	1	1.4744035290739308	-0.9293075460364557	33.09353546118793	0	0	0
78	1	1	2.2116052936108956	-0.9339511716429603	33.76919217513727	0	0	0
79	1	1	2.9488070581478603	-1.5214088629638516	34.10299903437104	0	0	0
80	1	1	3.686008822684825	-1.5260524885703561	34.778655748320375	0	0	0
81	1	1	4.4232105872217895	-2.1135101798912475	35.11246260755414	0	0	0
82	1	1	5.160412351758755	-2.118153805497752	35.78811932150348	0	0	0
83	1	1	5.89761411629572	-2.7056114968186433	36.12192618073725	0	0	0
84	1	1	6.634815880832685	-2.710255122425148	36.797582894686585	0	0	0
85	1	1	7.37201764536965	-3.297712813746039	37.13138975392035	0	0	0
86	1	1	8.109219409906615	-3.3023564393525437	37.80704646786969	0	0	0
87	1	1	8.846421174443579	-3.889814130673435	38.14085332710346	0	0	0
88	1	1	9.583622938980543	-3.8944577562799396	38.816510041052794	0	0	0
89	1	1	10.320824703517507	-4.481915447600831	39.15031690028656	0	0	0
90	1	1	11.058026468054472	-4.486559073207335	39.8259736142359	0	0	0
91	1	1	11.795228232591436	-5.074016764528226	40.15978047346967	0	0	0
92	1	1	12.5324299971284	-5.07866039013473	40.835437187419004	0	0	0
93	1	1	13.269631761665364	-5.666118081455622	41.16924404665277	0	0	0
94	1	1	14.006833526202328	-5.670761707062126	41.84490076060211	0	0	0
95	1	1	14.744035290739292	-6.258219398383018	42.178707619835876	0	0	0
96	1	1	15.481237055276257	-6.262863023989522	42.85436433378521	0	0	0
97	1	1	16.218438819813223	-6.8503207153104135	43.18817119301898	0	0	0
98	1	1	16.95564058435019	-6.854964340916918	43.86382790696832	0	0	0
99	1	1	17.692842348887154	-7.442422032237809	44.197634766202086	0	0	0
100	1	1	18.43004411342412	-7.4470656578443135	44.87329148015142	0	0	0
101	1	1	19.167245877961086	-8.034523349165205	45.20709833938519	0	0	0
102	1	1	19.904447642498052	-8.03916697477171	45.88275505333453	0	0	0
103	1	1	20.64164940703502	-8.626624666092601	46.216561912568295	0	0	0
104	1	1	21.378851171571984	-8.631268291699106	46.89221862651763	0	0	0
105	1	1	22.11605293610895	-9.218725983019997	47.2260254857514	0	0	0
106	1	1	22.853254700645916	-9.223369608626502	47.90168219970074	0	0	0
107	1	1	23.590456465182882	-9.810827299947393	48.235489058934505	0	0	0
108	1	1	24.327658229719848	-9.815470925553898	48.91114577288384	0	0	0
109	1	1	25.064859994256814	-10.402928616874789	49.24495263211761	0	0	0
110	1	1	25.80206175879378	-10.407572242481294	49.920609346066946	0	0	0
111	1	1	26.539263523330746	-10.995029933802185	50.254416205300714	0	0	0
112	1	1	27.276465287867712	-10.99967355940869	50.93007291925005	0	0	0
113	1	1	-0.8773541666009339	-0.13162125161961125	32.63835306136536	0	0	0
114	1	1	-1.7547083332018663	-0.47632786176288805	32.972159920599125	0	0	0
115	1	1	-2.6320624998027986	-0.35959594678058493	33.437588031452506	0	0	0
116	1	1	-3.509416666403731	-0.7043025569238617	33.771394890686274	0	0	0
117	1	1	-4.386770833004664	-0.5875706419415586	34.236823001539655	0	0	0
118	1	1	-5.264124999605596	-0.9322772520848355	34.57062986077342	0	0	0
119	1	1	-6.141479166206529	-0.8155453371025324	35.0360579716268	0	0	0
120	1	1	-7.0188333328074615	-1.1602519472458093	35.36986483086057	0	0	0
121	1	1	-7.896187499408394	-1.043520032263506	35.83529294171395	0	0	0
122	1	1	-8.773541666009326	-1.3882266424067828	36.16909980094772	0	0	0
123	1	1	-9.650895832610258	-1.2714947274244797	36.6345279118011	0	0	0
124	1	1	-10.52824999921119	-1.6162013375677564	36.96833477103487	0	0	0
125	1	1	-11.405604165812123	-1.4994694225854532	37.43376288188825	0	0	0
126	1	1	-12.282958332413056	-1.84417603272873	37.76756974112202	0	0	0
127	1	1	-13.160312499013989	-1.7274441177464268	38.2329978519754	0	0	0
128	1	1	-14.037666665614921	-2.072150727889704	38.566804711209166	0	0	0
129	1	1	-14.915020832215854	-1.9554188129074006	39.03223282206255	0	0	0
130	1	1	-15.792374998816786	-2.3001254230506776	39.366039681296314	0	0	0
131	1	1	-16.669729165417717	-2.1833935080683746	39.831467792149695	0	0	0
132	1	1	-17.547083332018648	-2.5281001182116514	40.16527465138346	0	0	0
133	1	1	-18.42443749861958	-2.4113682032293484	40.630702762236844	0	0	0
134	1	1	-19.30179166522051	-2.756074813372625	40.96450962147061	0	0	0
135	1	1	-20.17914583182144	-2.639342898390322	41.42993773232399	0	0	0
136	1	1	-21.05649999842237	-2.984049508533599	41.76374459155776	0	0	0
137	1	1	-21.933854165023302	-2.867317593551296	42.22917270241114	0	0	0
138	1	1	-22.811208331624233	-3.2120242036945728	42.56297956164491	0	0	0
139	1	1	-23.688562498225163	-3.09529228871227	43.02840767249829	0	0	0
140	1	1	-24.565916664826094	-3.4399988988555465	43.36221453173206	0	0	0
141	1	1	-25.443270831427025	-3.3232669838732436	43.82764264258544	0	0	0
142	1	1	-26.320624998027956	-3.6679735940165203	44.161449501819206	0	0	0
143	1	1	-27.197979164628887	-3.5512416790342174	44.62687761267259	0	0	0
144	1	1	-28.075333331229817	-3.895948289177494	44.960684471906355	0	0	0
145	1	1	-28.95268749783075	-3.779216374195191	45.426112582759735	0	0	0
146	1	1	-29.83004166443168	-4.123922984338468	45.7599194419935	0	0	0
147	1	1	-30.70739583103261	-4.007191069356165	46.225347552846884	0	0	0
148	1	1	-31.58474999763354	-4.351897679499442	46.55915441208065	0	0	0
149	1	1	-32.462104164234475	-4.235165764517139	47.02458252293403	0	0	0
150	1	1	-33.339458330835406	-4.5798723746604155	47.3583893821678	0	0	0
151	1	1	-33.23111645470965	-5.5247262900890775	47.66744134604552	0	0	0
152	1	1	-33.12277457858389	-6.497519765654353	47.462661240138765	0	0	0
153	1	1	-33.01443270245814	-7.16126127734191	48.202735049660674	0	0	0
154	1	1	-32.90609082633238	-8.134054752907186	47.99795494375392	0	0	0
155	1	1	-32.797748950206625	-8.797796264594744	48.73802875327583	0	0	0
156	1	1	-32.68940707408087	-9.77058974016002	48.53324864736907	0	0	0
157	1	1	-32.58106519795511	-10.434331251847578	49.27332245689098	0	0	0
158	1	1	-32.472723321829356	-11.407124727412853	49.068542350984224	0	0	0
159	1	1	-32.3643814457036	-12.070866239100411	49.80861616050613	0	0	0
160	1	1	-32.256039569577844	-13.043659714665687	49.60383605459938	0	0	0
161	1	1	-32.14769769345209	-13.707401226353245	50.34390986412129	0	0	0
162	1	1	-32.03935581732633	-14.68019470191852	50.13912975821453	0	0	0
163	1	1	-31.931013941200575	-15.343936213606078	50.87920356773644	0	0	0
164	1	1	-31.82267206507482	-16.316729689171353	50.67442346182968	0	0	0
165	1	1	-31.714330188949063	-16.98047120085891	51.41449727135159	0	0	0
166	1	1	-31.605988312823307	-17.953264676424187	51.209717165444836	0	0	0
167	1	1	-31.49764643669755	-18.617006188111745	51.949790974966746	0	0	0
168	1	1	-31.389304560571794	-19.58979966367702	51.74501086905999	0	0	0
169	1	1	-31.28096268444604	-20.253541175364578	52.4850846785819	0	0	0
170	1	1	-31.172620808320282	-21.226334650929854	52.28030457267514	0	0	0
171	1	1	-31.064278932194526	-21.89007616261741	53.02037838219705	0	0	0
172	1	1	-30.95593705606877	-22.862869638182687	52.815598276290295	0	0	0
173	1	1	-30.847595179943013	-23.526611149870245	53.555672085812205	0	0	0
174	1	1	-30.739253303817257	-24.49940462543552	53.35089197990545	0	0	0
175	1	1	-30.6309114276915	-25.16314613712308	54.09096578942736	0	0	0
176	1	1	-30.522569551565745	-26.135939612688354	53.8861856835206	0	0	0
177	1	1	-30.41422767543999	-26.799681124375912	54.62625949304251	0	0	0
178	1	1	-30.305885799314233	-27.772474599941187	54.421479387135754	0	0	0
179	1	1	-30.197543923188476	-28.436216111628745	55.161553196657664	0	0	0
180	1	1	-30.08920204706272	-29.40900958719402	54.95677309075091	0	0	0
181	1	1	-29.980860170936964	-30.07275109888158	55.69684690027282	0	0	0
182	1	1	-29.872518294811208	-31.045544574446854	55.49206679436606	0	0	0
183	1	1	-29.76417641868545	-31.709286086134412	56.23214060388797	0	0	0
184	1	1	-29.655834542559695	-32.68207956169969	56.02736049798121	0	0	0
185	1	1	-29.54749266643394	-33.34582107338724	56.76743430750312	0	0	0
186	1	1	-29.439150790308183	-34.31861454895252	56.56265420159637	0	0	0
187	1	1	-29.330808914182427	-34.98235606064007	57.302728011118276	0	0	0
188	1	1	-34.01381319013978	-4.546184678991529	46.620750810173966	0	0	0
189	1	1	-34.68816804944415	-4.148190992750397	45.998780915850475	0	0	0
190	1	1	-35.362522908748524	-4.487835878503099	45.343123325858095	0	0	0
191	1	1	-36.036877768052896	-4.089842192261967	44.7211534315346	0	0	0
192	1	1	-36.71123262735727	-4.429487078014669	44.06549584154222	0	0	0
193	1	1	-37.38558748666164	-4.031493391773537	43.44352594721873	0	0	0
194	1	1	-38.059942345966014	-4.3711382775262395	42.78786835722635	0	0	0
195	1	1	-38.73429720527039	-3.9731445912851076	42.16589846290286	0	0	0
196	1	1	-39.40865206457476	-4.31278947703781	41.51024087291048	0	0	0
197	1	1	-40.08300692387913	-3.9147957907966777	40.88827097858699	0	0	0
198	1	1	-40.757361783183505	-4.25444067654938	40.23261338859461	0	0	0
199	1	1	-41.43171664248788	-3.856446990308248	39.610643494271116	0	0	0
200	1	1	-42.10607150179225	-4.19609187606095	38.954985904278736	0	0	0
201	1	1	-42.78042636109662	-3.798098189819818	38.333016009955244	0	0	0
202	1	1	-43.454781220400996	-4.13774307557252	37.677358419962864	0	0	0
203	1	1	-44.12913607970537	-3.7397493893313882	37.05538852563937	0	0	0
204	1	1	-44.80349093900974	-4.07939427508409	36.39973093564699	0	0	0
205	1	1	-45.477845798314114	-3.6814005888429584	35.7777610413235	0	0	0
206	1	1	-46.152200657618486	-4.0210454745956605	35.12210345133112	0	0	0
207	1	1	-46.82655551692286	-3.6230517883545286	34.50013355700763	0	0	0
208	1	1	-47.50091037622723	-3.9626966741072307	33.84447596701525	0	0	0
209	1	1	-48.175265235531604	-3.5647029878660987	33.22250607269176	0	0	0
210	1	1	-48.84962009483598	-3.904347873618801	32.56684848269938	0	0	0
211	1	1	-49.52397495414035	-3.506354187377669	31.944878588375882	0	0	0
212	1	1	-50.19832981344472	-3.845999073130371	31.289220998383502	0	0	0
213	1	1	-50.872684672749095	-3.448005386889239	30.667251104060007	0	0	0
214	1	1	-51.54703953205347	-3.787650272641941	30.011593514067627	0	0	0
215	1	1	-52.22139439135784	-3.3896565864008092	29.389623619744132	0	0	0
216	1	1	-52.89574925066221	-3.7293014721535114	28.733966029751752	0	0	0
217	1	1	-53.570104109966586	-3.3313077859123794	28.111996135428257	0	0	0
218	1	1	-54.24445896927096	-3.6709526716650815	27.456338545435877	0	0	0
219	1	1	-54.91881382857533	-3.2729589854239496	26.83436865111238	0	0	0
220	1	1	-55.593168687879704	-3.6126038711766517	26.17871106112	0	0	0
221	1	1	-56.26752354718408	-3.2146101849355198	25.556741166796506	0	0	0
222	1	1	-56.94187840648845	-3.554255070688222	24.901083576804126	0	0	0
223	1	1	-57.61623326579282	-3.15626138444709	24.27911368248063	0	0	0
224	1	1	-58.290588125097194	-3.495906270199792	23.62345609248825	0	0	0
225	1	1	-33.65204586402296	-4.013902447567781	48.12125704809845	0	0	0
226	1	1	-33.96463339721051	-3.905191945892857	49.06490479006645	0	0	0
227	1	1	-34.277220930398066	-3.0336137782872825	49.44258260494182	0	0	0
228	1	1	-34.58980846358562	-2.9249032766123584	50.38623034690982	0	0	0
229	1	1	-34.90239599677317	-2.053325109006784	50.76390816178519	0	0	0
230	1	1	-35.214983529960726	-1.94461460733186	51.70755590375319	0	0	0
231	1	1	-35.52757106314828	-1.0730364397262857	52.08523371862856	0	0	0
232	1	1	-35.84015859633583	-0.9643259380513616	53.02888146059656	0	0	0
233	1	1	-36.152746129523386	-0.09274777044578741	53.40655927547193	0	0	0
234	1	1	-36.46533366271094	0.015962731229136717	54.35020701743993	0	0	0
235	1	1	-36.77792119589849	0.8875408988347109	54.7278848323153	0	0	0
236	1	1	-37.09050872908605	0.996251400509635	55.6715325742833	0	0	0
237	1	1	-37.4030962622736	1.867829568115209	56.04921038915867	0	0	0
238	1	1	-37.71568379546115	1.9765400697901332	56.99285813112667	0	0	0
239	1	1	-38.02827132864871	2.8481182373957075	57.370535946002036	0	0	0
240	1	1	-38.34085886183626	2.9568287390706316	58.314183687970036	0	0	0
241	1	1	-38.65344639502381	3.828406906676206	58.691861502845406	0	0	0
242	1	1	-38.96603392821137	3.93711740835113	59.635509244813406	0	0	0
243	1	1	-39.27862146139892	4.808695575956704	60.013187059688775	0	0	0
244	1	1	-39.591208994586474	4.917406077631628	60.956834801656775	0	0	0
245	1	1	-39.90379652777403	5.788984245237202	61.334512616532145	0	0	0
246	1	1	-40.21638406096158	5.897694746912126	62.278160358500145	0	0	0
247	1	1	-40.528971594149134	6.769272914517701	62.655838173375514	0	0	0
248	1	1	-40.84155912733669	6.877983416192625	63.599485915343514	0	0	0
249	1	1	-41.15414666052424	7.749561583798199	63.977163730218884	0	0	0
250	1	1	-41.466734193711794	7.858272085473123	64.92081147218688	0	0	0
251	1	1	-41.77932172689935	8.729850253078697	65.29848928706225	0	0	0
252	1	1	-42.0919092600869	8.83856075475362	66.24213702903026	0	0	0
253	1	1	-42.404496793274454	9.710138922359194	66.61981484390563	0	0	0
254	1	1	-42.71708432646201	9.818849424034118	67.56346258587364	0	0	0
255	1	1	-43.02967185964956	10.690427591639692	67.941140400749	0	0	0
256	1	1	-43.342259392837114	10.799138093314616	68.88478814271701	0	0	0
257	1	1	-43.65484692602467	11.670716260920189	69.26246595759238	0	0	0
258	1	1	-43.96743445921222	11.779426762595113	70.20611369956039	0	0	0
259	1	1	-44.280021992399774	12.651004930200687	70.58379151443576	0	0	0
260	1	1	-44.59260952558733	12.75971543187561	71.52743925640377	0	0	0
261	1	1	-44.90519705877488	13.631293599481184	71.90511707127914	0	0	0
262	1	1	-45.217784591962435	13.740004101156108	72.84876481324714	0	0	0
263	1	1	-46.15447421026411	14.090150957474918	72.85188538625886	0	0	0
264	1	1	-47.09116382856578	14.39182674359641	73.02966130992077	0	0	0
265	1	1	-48.027853446867454	14.696623102729612	72.85729037726387	0	0	0
266	1	1	-48.964543065169124	14.998298888851103	73.03506630092578	0	0	0
267	1	1	-49.901232683470795	15.303095247984306	72.86269536826887	0	0	0
268	1	1	-50.837922301772466	15.604771034105797	73.04047129193079	0	0	0
269	1	1	-51.774611920074136	15.909567393239	72.86810035927388	0	0	0
270	1	1	-52.71130153837581	16.21124317936049	73.0458762829358	0	0	0
271	1	1	-53.64799115667748	16.516039538493693	72.87350535027889	0	0	0
272	1	1	-54.58468077497915	16.817715324615186	73.0512812739408	0	0	0
273	1	1	-55.52137039328082	17.12251168374839	72.8789103412839	0	0	0
274	1	1	-56.45806001158249	17.42418746986988	73.05668626494581	0	0	0
275	1	1	-57.39474962988416	17.728983829003084	72.8843153322889	0	0	0
276	1	1	-58.33143924818583	18.030659615124577	73.06209125595082	0	0	0
277	1	1	-59.2681288664875	18.33545597425778	72.88972032329391	0	0	0
278	1	1	-60.20481848478917	18.637131760379273	73.06749624695583	0	0	0
279	1	1	-61.14150810309084	18.941928119512475	72.89512531429892	0	0	0
280	1	1	-62.07819772139251	19.243603905633968	73.07290123796083	0	0	0
281	1	1	-63.014887339694184	19.54840026476717	72.90053030530393	0	0	0
282	1	1	-63.951576957995854	19.850076050888664	73.07830622896584	0	0	0
283	1	1	-64.88826657629753	20.154872410021866	72.90593529630894	0	0	0
284	1	1	-65.8249561945992	20.45654819614336	73.08371121997085	0	0	0
285	1	1	-66.76164581290087	20.761344555276562	72.91134028731395	0	0	0
286	1	1	-67.69833543120254	21.063020341398055	73.08911621097586	0	0	0
287	1	1	-68.63502504950421	21.367816700531257	72.91674527831896	0	0	0
288	1	1	-69.57171466780588	21.66949248665275	73.09452120198087	0	0	0
289	1	1	-70.50840428610755	21.974288845785953	72.92215026932396	0	0	0
290	1	1	-71.44509390440922	22.275964631907446	73.09992619298588	0	0	0
291	1	1	-72.38178352271089	22.58076099104065	72.92755526032897	0	0	0
292	1	1	-73.31847314101256	22.88243677716214	73.10533118399088	0	0	0
293	1	1	-74.25516275931423	23.187233136295344	72.93296025133398	0	0	0
294	1	1	-75.1918523776159	23.488908922416837	73.11073617499589	0	0	0
295	1	1	-76.12854199591757	23.79370528155004	72.93836524233899	0	0	0
296	1	1	-77.06523161421924	24.095381067671532	73.1161411660009	0	0	0
297	1	1	-78.00192123252091	24.400177426804735	72.943770233344	0	0	0
298	1	1	-78.93861085082258	24.701853212926228	73.12154615700591	0	0	0
299	1	1	-79.87530046912426	25.00664957205943	72.949175224349	0	0	0
300	1	1	-44.62010133126885	14.384002595263775	73.32630084275043	0	0	0
301	1	1	-44.02241807057527	14.702953636408296	74.06185842257645	0	0	0
302	1	1	-43.42473480988169	15.499440707056092	74.15341750829481	0	0	0
303	1	1	-42.82705154918811	15.818391748200613	74.88897508812083	0	0	0
304	1	1	-42.229368288494534	16.61487881884841	74.98053417383919	0	0	0
305	1	1	-41.631685027800955	16.933829859992933	75.71609175366521	0	0	0
306	1	1	-41.03400176710738	17.73031693064073	75.80765083938357	0	0	0
307	1	1	-40.4363185064138	18.04926797178525	76.54320841920959	0	0	0
308	1	1	-39.83863524572022	18.845755042433048	76.63476750492795	0	0	0
309	1	1	-39.24095198502664	19.16470608357757	77.37032508475397	0	0	0
310	1	1	-38.64326872433306	19.961193154225366	77.46188417047233	0	0	0
311	1	1	-38.04558546363948	20.28014419536989	78.19744175029835	0	0	0
312	1	1	-37.447902202945905	21.076631266017685	78.28900083601671	0	0	0
313	1	1	-36.850218942252326	21.395582307162208	79.02455841584273	0	0	0
314	1	1	-36.25253568155875	22.192069377810004	79.11611750156109	0	0	0
315	1	1	-35.65485242086517	22.511020418954526	79.85167508138711	0	0	0
316	1	1	-35.05716916017159	23.307507489602322	79.94323416710547	0	0	0
317	1	1	-34.45948589947801	23.626458530746845	80.6787917469315	0	0	0
318	1	1	-33.86180263878443	24.42294560139464	80.77035083264985	0	0	0
319	1	1	-33.264119378090854	24.741896642539164	81.50590841247588	0	0	0
320	1	1	-32.666436117397275	25.53838371318696	81.59746749819423	0	0	0
321	1	1	-32.068752856703696	25.857334754331482	82.33302507802026	0	0	0
322	1	1	-31.471069596010118	26.65382182497928	82.42458416373861	0	0	0
323	1	1	-30.87338633531654	26.9727728661238	83.16014174356464	0	0	0
324	1	1	-30.27570307462296	27.769259936771597	83.251700829283	0	0	0
325	1	1	-29.67801981392938	28.08821097791612	83.98725840910902	0	0	0
326	1	1	-29.080336553235803	28.884698048563916	84.07881749482738	0	0	0
327	1	1	-28.482653292542224	29.20364908970844	84.8143750746534	0	0	0
328	1	1	-27.884970031848646	30.000136160356234	84.90593416037176	0	0	0
329	1	1	-27.287286771155067	30.319087201500757	85.64149174019778	0	0	0
330	1	1	-26.689603510461488	31.115574272148553	85.73305082591614	0	0	0
331	1	1	-26.09192024976791	31.434525313293076	86.46860840574216	0	0	0
332	1	1	-25.49423698907433	32.23101238394087	86.56016749146052	0	0	0
333	1	1	-24.896553728380752	32.549963425085394	87.29572507128654	0	0	0
334	1	1	-24.298870467687173	33.346450495733194	87.3872841570049	0	0	0
335	1	1	-23.701187206993595	33.66540153687772	88.12284173683092	0	0	0
336	1	1	-23.103503946300016	34.461888607525516	88.21440082254928	0	0	0
337	1	1	-45.19180982242126	12.85472368411912	73.31309647764029	0	0	0
338	1	1	-45.16583505288009	11.855882521295639	73.27257928626777	0	0	0
339	1	1	-45.13986028333892	11.321373022865304	74.11734251193224	0	0	0
340	1	1	-45.11388551379775	10.322531860041822	74.07682532055972	0	0	0
341	1	1	-45.087910744256575	9.788022361611487	74.92158854622419	0	0	0
342	1	1	-45.061935974715404	8.789181198788006	74.88107135485167	0	0	0
343	1	1	-45.03596120517423	8.25467170035767	75.72583458051614	0	0	0
344	1	1	-45.00998643563306	7.255830537534188	75.68531738914362	0	0	0
345	1	1	-44.98401166609189	6.721321039103853	76.53008061480809	0	0	0
346	1	1	-44.958036896550716	5.722479876280371	76.48956342343557	0	0	0
347	1	1	-44.932062127009544	5.187970377850036	77.33432664910003	0	0	0
348	1	1	-44.90608735746837	4.189129215026553	77.29380945772752	0	0	0
349	1	1	-44.8801125879272	3.654619716596218	78.13857268339198	0	0	0
350	1	1	-44.85413781838603	2.655778553772736	78.09805549201947	0	0	0
351	1	1	-44.82816304884486	2.1212690553424007	78.94281871768393	0	0	0
352	1	1	-44.802188279303685	1.1224278925189184	78.90230152631142	0	0	0
353	1	1	-44.77621350976251	0.587918394088583	79.74706475197588	0	0	0
354	1	1	-44.75023874022134	-0.4109227687348992	79.70654756060337	0	0	0
355	1	1	-44.72426397068017	-0.9454322671652345	80.55131078626783	0	0	0
356	1	1	-44.698289201139	-1.9442734299887168	80.51079359489532	0	0	0
357	1	1	-44.672314431597826	-2.478782928419052	81.35555682055978	0	0	0
358	1	1	-44.646339662056654	-3.4776240912425345	81.31503962918727	0	0	0
359	1	1	-44.62036489251548	-4.01213358967287	82.15980285485173	0	0	0
360	1	1	-44.59439012297431	-5.010974752496352	82.11928566347922	0	0	0
361	1	1	-44.56841535343314	-5.5454842509266875	82.96404888914368	0	0	0
362	1	1	-44.54244058389197	-6.54432541375017	82.92353169777117	0	0	0
363	1	1	-44.516465814350795	-7.078834912180505	83.76829492343563	0	0	0
364	1	1	-44.49049104480962	-8.077676075003987	83.72777773206312	0	0	0
365	1	1	-44.46451627526845	-8.612185573434322	84.57254095772758	0	0	0
366	1	1	-44.43854150572728	-9.611026736257804	84.53202376635507	0	0	0
367	1	1	-44.41256673618611	-10.145536234688139	85.37678699201953	0	0	0
368	1	1	-44.386591966644936	-11.14437739751162	85.33626980064702	0	0	0
369	1	1	-44.360617197103764	-11.678886895941956	86.18103302631148	0	0	0
370	1	1	-44.33464242756259	-12.677728058765437	86.14051583493897	0	0	0
371	1	1	-44.30866765802142	-13.212237557195772	86.98527906060343	0	0	0
372	1	1	-44.28269288848025	-14.211078720019254	86.94476186923092	0	0	0
373	1	1	-44.25671811893908	-14.745588218449589	87.78952509489538	0	0	0
374	1	1	-44.230743349397905	-15.74442938127307	87.74900790352287	0	0	0
375	1	1	-43.58414284456079	-16.033167475129577	87.04293559823077	0	0	0
376	1	1	-42.93754233972367	-15.930185846803559	86.28708999801091	0	0	0
377	1	1	-42.29094183488655	-16.533276523769636	85.81998249164756	0	0	0
378	1	1	-41.644341330049436	-16.43029489544362	85.06413689142771	0	0	0
379	1	1	-40.99774082521232	-17.0333855724097	84.59702938506436	0	0	0
380	1	1	-40.3511403203752	-16.930403944083682	83.8411837848445	0	0	0
381	1	1	-39.704539815538084	-17.533494621049762	83.37407627848116	0	0	0
382	1	1	-39.05793931070097	-17.430512992723745	82.6182306782613	0	0	0
383	1	1	-38.41133880586385	-18.033603669689825	82.15112317189795	0	0	0
384	1	1	-37.76473830102673	-17.930622041363808	81.3952775716781	0	0	0
385	1	1	-37.118137796189615	-18.533712718329888	80.92817006531475	0	0	0
386	1	1	-36.4715372913525	-18.43073109000387	80.17232446509489	0	0	0
387	1	1	-35.82493678651538	-19.03382176696995	79.70521695873154	0	0	0
388	1	1	-35.17833628167826	-18.930840138643934	78.94937135851168	0	0	0
389	1	1	-34.531735776841145	-19.533930815610013	78.48226385214834	0	0	0
390	1	1	-33.88513527200403	-19.430949187283996	77.72641825192848	0	0	0
391	1	1	-33.23853476716691	-20.034039864250076	77.25931074556513	0	0	0
392	1	1	-32.591934262329794	-19.93105823592406	76.50346514534527	0	0	0
393	1	1	-31.945333757492676	-20.53414891289014	76.03635763898193	0	0	0
394	1	1	-31.29873325265556	-20.431167284564122	75.28051203876207	0	0	0
395	1	1	-30.65213274781844	-21.0342579615302	74.81340453239872	0	0	0
396	1	1	-30.005532242981324	-20.931276333204185	74.05755893217886	0	0	0
397	1	1	-29.358931738144207	-21.534367010170264	73.59045142581552	0	0	0
398	1	1	-28.71233123330709	-21.431385381844247	72.83460582559566	0	0	0
399	1	1	-28.065730728469973	-22.034476058810327	72.36749831923231	0	0	0
400	1	1	-27.419130223632855	-21.93149443048431	71.61165271901245	0	0	0
401	1	1	-26.772529718795738	-22.53458510745039	71.1445452126491	0	0	0
402	1	1	-26.12592921395862	-22.431603479124373	70.38869961242925	0	0	0
403	1	1	-25.479328709121503	-23.034694156090453	69.9215921060659	0	0	0
404	1	1	-24.832728204284386	-22.931712527764436	69.16574650584604	0	0	0
405	1	1	-24.18612769944727	-23.534803204730515	68.6986389994827	0	0	0
406	1	1	-23.53952719461015	-23.4318215764045	67.94279339926284	0	0	0
407	1	1	-22.892926689773034	-24.034912253370578	67.47568589289949	0	0	0
408	1	1	-22.246326184935917	-23.93193062504456	66.71984029267963	0	0	0
409	1	1	-21.5997256800988	-24.53502130201064	66.25273278631629	0	0	0
410	1	1	-20.953125175261683	-24.432039673684624	65.49688718609643	0	0	0
411	1	1	-20.306524670424565	-25.035130350650704	65.02977967973308	0	0	0
412	1	1	-45.14167421197031	-16.093384832591255	87.5289282438348	0	0	0
413	1	1	-46.05260507454272	-16.285549288377837	87.16385594202961	0	0	0
414	1	1	-46.963535937115125	-16.697793403852483	87.1477390915426	0	0	0
415	1	1	-47.87446679968753	-16.889957859639065	86.78266678973742	0	0	0
416	1	1	-48.78539766225994	-17.30220197511371	86.76654993925041	0	0	0
417	1	1	-49.696328524832346	-17.494366430900293	86.40147763744523	0	0	0
418	1	1	-50.60725938740475	-17.90661054637494	86.38536078695822	0	0	0
419	1	1	-51.51819024997716	-18.09877500216152	86.02028848515303	0	0	0
420	1	1	-52.429121112549566	-18.511019117636167	86.00417163466602	0	0	0
421	1	1	-53.34005197512197	-18.70318357342275	85.63909933286084	0	0	0
422	1	1	-54.25098283769438	-19.115427688897395	85.62298248237383	0	0	0
423	1	1	-55.16191370026679	-19.307592144683976	85.25791018056864	0	0	0
424	1	1	-56.072844562839194	-19.719836260158623	85.24179333008163	0	0	0
425	1	1	-56.9837754254116	-19.912000715945204	84.87672102827645	0	0	0
426	1	1	-57.89470628798401	-20.32424483141985	84.86060417778944	0	0	0
427	1	1	-58.805637150556414	-20.516409287206432	84.49553187598426	0	0	0
428	1	1	-59.71656801312882	-20.92865340268108	84.47941502549725	0	0	0
429	1	1	-60.62749887570123	-21.12081785846766	84.11434272369206	0	0	0
430	1	1	-61.538429738273635	-21.533061973942306	84.09822587320505	0	0	0
431	1	1	-62.44936060084604	-21.725226429728888	83.73315357139987	0	0	0
432	1	1	-63.36029146341845	-22.137470545203534	83.71703672091286	0	0	0
433	1	1	-64.27122232599085	-22.329635000990116	83.35196441910767	0	0	0
434	1	1	-65.18215318856325	-22.741879116464762	83.33584756862066	0	0	0
435	1	1	-66.09308405113565	-22.934043572251344	82.97077526681548	0	0	0
436	1	1	-67.00401491370805	-23.34628768772599	82.95465841632847	0	0	0
437	1	1	-67.91494577628045	-23.538452143512572	82.58958611452329	0	0	0