bb262nuc5bl43bn4d30tot700V2

693 atoms
692 bonds
706 angles

1 atom types
1 bond types
1 angle types

-1000 1000 xlo xhi
-1000 1000 ylo yhi
-1000 1000 zlo zhi

Masses

1 1

Atoms

1	1	1	0.0	0.0	0.0	0	0	0
2	1	1	0.0	0.0	1.0	0	0	0
3	1	1	0.0	-0.49999999999999994	1.8660254037844388	0	0	0
4	1	1	0.0	0.0	2.7320508075688776	0	0	0
5	1	1	0.0	-0.49999999999999994	3.5980762113533165	0	0	0
6	1	1	0.0	0.0	4.464101615137755	0	0	0
7	1	1	0.0	-0.49999999999999994	5.330127018922194	0	0	0
8	1	1	0.0	0.0	6.196152422706632	0	0	0
9	1	1	0.0	-0.49999999999999994	7.06217782649107	0	0	0
10	1	1	0.0	0.0	7.928203230275509	0	0	0
11	1	1	0.0	-0.49999999999999994	8.794228634059948	0	0	0
12	1	1	0.0	0.0	9.660254037844387	0	0	0
13	1	1	0.0	-0.49999999999999994	10.526279441628827	0	0	0
14	1	1	0.0	0.0	11.392304845413266	0	0	0
15	1	1	0.0	-0.49999999999999994	12.258330249197705	0	0	0
16	1	1	0.0	0.0	13.124355652982144	0	0	0
17	1	1	0.0	-0.49999999999999994	13.990381056766584	0	0	0
18	1	1	0.0	0.0	14.856406460551023	0	0	0
19	1	1	0.0	-0.49999999999999994	15.722431864335462	0	0	0
20	1	1	0.0	0.0	16.5884572681199	0	0	0
21	1	1	0.0	-0.49999999999999994	17.454482671904337	0	0	0
22	1	1	0.0	0.0	18.320508075688775	0	0	0
23	1	1	0.0	-0.49999999999999994	19.186533479473212	0	0	0
24	1	1	0.0	0.0	20.05255888325765	0	0	0
25	1	1	0.0	-0.49999999999999994	20.918584287042087	0	0	0
26	1	1	0.0	0.0	21.784609690826525	0	0	0
27	1	1	0.0	-0.49999999999999994	22.650635094610962	0	0	0
28	1	1	0.0	0.0	23.5166604983954	0	0	0
29	1	1	0.0	-0.49999999999999994	24.382685902179837	0	0	0
30	1	1	0.0	0.0	25.248711305964274	0	0	0
31	1	1	0.0	-0.49999999999999994	26.114736709748712	0	0	0
32	1	1	0.0	0.0	26.98076211353315	0	0	0
33	1	1	0.0	-0.49999999999999994	27.846787517317587	0	0	0
34	1	1	0.0	0.0	28.712812921102024	0	0	0
35	1	1	0.0	-0.49999999999999994	29.578838324886462	0	0	0
36	1	1	0.0	0.0	30.4448637286709	0	0	0
37	1	1	0.0	-0.49999999999999994	31.310889132455337	0	0	0
38	1	1	0.0	0.0	32.17691453623978	0	0	0
39	1	1	0.0	-0.49999999999999994	33.04293994002422	0	0	0
40	1	1	0.0	0.0	33.90896534380866	0	0	0
41	1	1	0.0	-0.49999999999999994	34.7749907475931	0	0	0
42	1	1	0.0	0.0	35.64101615137754	0	0	0
43	1	1	0.0	-0.49999999999999994	36.50704155516198	0	0	0
44	1	1	0.0	0.0	37.373066958946424	0	0	0
45	1	1	-0.13135520806137646	-0.6414832925234103	38.128874470637385	0	0	0
46	1	1	-0.2627104161227527	-1.5749278757974463	38.46268132987115	0	0	0
47	1	1	-0.39406562418412894	-1.7525649473805236	39.43797148162833	0	0	0
48	1	1	-0.5254208322455052	-2.6860095306545597	39.7717783408621	0	0	0
49	1	1	-0.6567760403068814	-2.863646602237637	40.74706849261928	0	0	0
50	1	1	-0.7881312483682577	-3.7970911855116727	41.080875351853045	0	0	0
51	1	1	-0.9194864564296339	-3.9747282570947498	42.056165503610224	0	0	0
52	1	1	-1.0508416644910101	-4.908172840368786	42.38997236284399	0	0	0
53	1	1	-1.1821968725523864	-5.085809911951863	43.36526251460117	0	0	0
54	1	1	-1.3135520806137626	-6.019254495225899	43.69906937383494	0	0	0
55	1	1	-1.4449072886751388	-6.196891566808976	44.674359525592116	0	0	0
56	1	1	-1.576262496736515	-7.130336150083012	45.008166384825884	0	0	0
57	1	1	-1.7076177047978913	-7.307973221666089	45.98345653658306	0	0	0
58	1	1	-1.8389729128592676	-8.241417804940125	46.31726339581683	0	0	0
59	1	1	-1.9703281209206438	-8.419054876523203	47.29255354757401	0	0	0
60	1	1	-2.10168332898202	-9.35249945979724	47.62636040680778	0	0	0
61	1	1	-2.233038537043396	-9.530136531380318	48.601650558564955	0	0	0
62	1	1	-2.3643937451047723	-10.463581114654355	48.93545741779872	0	0	0
63	1	1	-2.4957489531661485	-10.641218186237433	49.9107475695559	0	0	0
64	1	1	-2.6271041612275248	-11.57466276951147	50.24455442878967	0	0	0
65	1	1	-2.758459369288901	-11.752299841094548	51.21984458054685	0	0	0
66	1	1	-2.8898145773502772	-12.685744424368584	51.553651439780616	0	0	0
67	1	1	-3.0211697854116535	-12.863381495951662	52.528941591537794	0	0	0
68	1	1	-3.1525249934730297	-13.7968260792257	52.86274845077156	0	0	0
69	1	1	-3.283880201534406	-13.974463150808777	53.83803860252874	0	0	0
70	1	1	-3.415235409595782	-14.907907734082814	54.17184546176251	0	0	0
71	1	1	-3.5465906176571584	-15.085544805665892	55.14713561351969	0	0	0
72	1	1	-3.6779458257185347	-16.01898938893993	55.480942472753455	0	0	0
73	1	1	-3.809301033779911	-16.196626460523007	56.45623262451063	0	0	0
74	1	1	-3.940656241841287	-17.13007104379704	56.7900394837444	0	0	0
75	1	1	-4.072011449902663	-17.30770811538012	57.76532963550158	0	0	0
76	1	1	-4.20336665796404	-18.241152698654155	58.09913649473535	0	0	0
77	1	1	-4.334721866025416	-18.418789770237233	59.074426646492526	0	0	0
78	1	1	-4.466077074086792	-19.352234353511268	59.408233505726294	0	0	0
79	1	1	-4.597432282148168	-19.529871425094345	60.38352365748347	0	0	0
80	1	1	-4.728787490209545	-20.46331600836838	60.71733051671724	0	0	0
81	1	1	-4.860142698270921	-20.64095307995146	61.69262066847442	0	0	0
82	1	1	-4.991497906332297	-21.574397663225493	62.02642752770819	0	0	0
83	1	1	-5.122853114393673	-21.75203473480857	63.001717679465365	0	0	0
84	1	1	-5.2542083224550495	-22.685479318082606	63.33552453869913	0	0	0
85	1	1	-5.385563530516426	-22.863116389665684	64.31081469045631	0	0	0
86	1	1	-5.516918738577802	-23.79656097293972	64.64462154969009	0	0	0
87	1	1	-5.648273946639178	-23.974198044522797	65.61991170144726	0	0	0
88	1	1	-0.7427091181096045	0.6696131967330685	37.37191255963158	0	0	0
89	1	1	-1.4854182362192077	1.2500924354706313	37.70571941886536	0	0	0
90	1	1	-2.228127354328811	1.8294172748933555	37.369913081366064	0	0	0
91	1	1	-2.970836472438414	2.409896513630918	37.70371994059984	0	0	0
92	1	1	-3.713545590548017	2.989221353053642	37.36791360310055	0	0	0
93	1	1	-4.45625470865762	3.5697005917912046	37.70172046233432	0	0	0
94	1	1	-5.198963826767224	4.1490254312139285	37.36591412483503	0	0	0
95	1	1	-5.941672944876827	4.729504669951491	37.699720984068804	0	0	0
96	1	1	-6.684382062986431	5.308829509374215	37.36391464656951	0	0	0
97	1	1	-7.427091181096034	5.889308748111778	37.69772150580329	0	0	0
98	1	1	-8.169800299205637	6.468633587534502	37.361915168303995	0	0	0
99	1	1	-8.91250941731524	7.049112826272064	37.69572202753777	0	0	0
100	1	1	-9.655218535424844	7.628437665694788	37.35991569003848	0	0	0
101	1	1	-10.397927653534447	8.208916904432352	37.69372254927225	0	0	0
102	1	1	-11.14063677164405	8.788241743855076	37.35791621177296	0	0	0
103	1	1	-11.883345889753654	9.36872098259264	37.691723071006734	0	0	0
104	1	1	-12.626055007863258	9.948045822015365	37.35591673350744	0	0	0
105	1	1	-13.368764125972861	10.528525060752928	37.68972359274122	0	0	0
106	1	1	-14.111473244082465	11.107849900175653	37.353917255241925	0	0	0
107	1	1	-14.854182362192068	11.688329138913216	37.6877241144757	0	0	0
108	1	1	-15.596891480301672	12.267653978335941	37.35191777697641	0	0	0
109	1	1	-16.339600598411273	12.848133217073505	37.68572463621018	0	0	0
110	1	1	-17.082309716520875	13.42745805649623	37.34991829871089	0	0	0
111	1	1	-17.825018834630477	14.007937295233793	37.683725157944664	0	0	0
112	1	1	-18.56772795274008	14.587262134656518	37.34791882044537	0	0	0
113	1	1	-19.31043707084968	15.167741373394081	37.68172567967915	0	0	0
114	1	1	-20.053146188959282	15.747066212816806	37.345919342179855	0	0	0
115	1	1	-20.795855307068884	16.327545451554368	37.67972620141363	0	0	0
116	1	1	-21.538564425178485	16.906870290977093	37.34391986391434	0	0	0
117	1	1	-22.281273543288087	17.487349529714656	37.67772672314811	0	0	0
118	1	1	-23.02398266139769	18.06667436913738	37.34192038564882	0	0	0
119	1	1	-23.76669177950729	18.647153607874944	37.675727244882594	0	0	0
120	1	1	-24.509400897616892	19.22647844729767	37.3399209073833	0	0	0
121	1	1	-25.252110015726494	19.806957686035233	37.67372776661708	0	0	0
122	1	1	-25.994819133836096	20.386282525457958	37.337921429117785	0	0	0
123	1	1	-26.737528251945697	20.96676176419552	37.67172828835156	0	0	0
124	1	1	-27.4802373700553	21.546086603618246	37.33592195085227	0	0	0
125	1	1	-28.2229464881649	22.12656584235581	37.66972881008604	0	0	0
126	1	1	-28.965655606274503	22.705890681778534	37.33392247258675	0	0	0
127	1	1	-29.708364724384104	23.286369920516098	37.667729331820524	0	0	0
128	1	1	-30.451073842493706	23.865694759938823	37.33192299432123	0	0	0
129	1	1	-31.193782960603308	24.446173998676386	37.66572985355501	0	0	0
130	1	1	-31.93649207871291	25.02549883809911	37.329923516055715	0	0	0
131	1	1	0.8740643261709862	0.47258038464099456	37.48566950673213	0	0	0
132	1	1	1.748128652341971	0.8255457291774623	37.819476365965905	0	0	0
133	1	1	2.622192978512956	1.2911136214996386	37.68070284055868	0	0	0
134	1	1	3.496257304683941	1.6440789660361064	38.014509699792455	0	0	0
135	1	1	4.370321630854926	2.109646858358283	37.87573617438523	0	0	0
136	1	1	5.244385957025911	2.4626122028947504	38.209543033619006	0	0	0
137	1	1	6.118450283196896	2.9281800952169266	38.07076950821178	0	0	0
138	1	1	6.992514609367881	3.281145439753394	38.40457636744556	0	0	0
139	1	1	7.8665789355388664	3.7467133320755703	38.26580284203833	0	0	0
140	1	1	8.74064326170985	4.099678676612038	38.59960970127211	0	0	0
141	1	1	9.614707587880835	4.5652465689342145	38.460836175864884	0	0	0
142	1	1	10.488771914051819	4.9182119134706825	38.79464303509866	0	0	0
143	1	1	11.362836240222803	5.383779805792859	38.655869509691435	0	0	0
144	1	1	12.236900566393787	5.736745150329327	38.98967636892521	0	0	0
145	1	1	13.110964892564771	6.202313042651503	38.850902843517986	0	0	0
146	1	1	13.985029218735756	6.555278387187971	39.18470970275176	0	0	0
147	1	1	14.85909354490674	7.020846279510147	39.04593617734454	0	0	0
148	1	1	15.733157871077724	7.373811624046615	39.37974303657831	0	0	0
149	1	1	16.60722219724871	7.839379516368791	39.24096951117109	0	0	0
150	1	1	17.481286523419694	8.192344860905258	39.57477637040486	0	0	0
151	1	1	18.35535084959068	8.657912753227436	39.43600284499764	0	0	0
152	1	1	19.229415175761662	9.010878097763904	39.76980970423141	0	0	0
153	1	1	20.103479501932647	9.47644599008608	39.63103617882419	0	0	0
154	1	1	20.97754382810363	9.829411334622549	39.964843038057964	0	0	0
155	1	1	21.851608154274615	10.294979226944726	39.82606951265074	0	0	0
156	1	1	22.7256724804456	10.647944571481194	40.159876371884515	0	0	0
157	1	1	23.599736806616583	11.11351246380337	40.02110284647729	0	0	0
158	1	1	24.473801132787568	11.466477808339839	40.354909705711066	0	0	0
159	1	1	25.34786545895855	11.932045700662016	40.21613618030384	0	0	0
160	1	1	26.221929785129536	12.285011045198484	40.54994303953762	0	0	0
161	1	1	27.09599411130052	12.750578937520661	40.41116951413039	0	0	0
162	1	1	27.970058437471504	13.103544282057129	40.74497637336417	0	0	0
163	1	1	28.84412276364249	13.569112174379306	40.60620284795694	0	0	0
164	1	1	29.718187089813473	13.922077518915774	40.94000970719072	0	0	0
165	1	1	30.592251415984457	14.387645411237951	40.801236181783494	0	0	0
166	1	1	31.46631574215544	14.74061075577442	41.13504304101727	0	0	0
167	1	1	32.340380068326425	15.206178648096596	40.996269515610045	0	0	0
168	1	1	33.21444439449741	15.559143992633064	41.33007637484382	0	0	0
169	1	1	34.0885087206684	16.02471188495524	41.191302849436596	0	0	0
170	1	1	34.96257304683939	16.37767722949171	41.52510970867037	0	0	0
171	1	1	35.836637373010376	16.843245121813887	41.38633618326315	0	0	0
172	1	1	36.710701699181364	17.196210466350355	41.72014304249692	0	0	0
173	1	1	37.58476602535235	17.66177835867253	41.5813695170897	0	0	0
174	1	1	38.45883035152334	18.014743703209	41.91517637632347	0	0	0
175	1	1	39.19321378866502	17.720164214808605	41.30369956379029	0	0	0
176	1	1	39.9275972258067	17.77078930068663	40.62685536611122	0	0	0
177	1	1	40.66198066294838	17.209937574031475	40.24459065683255	0	0	0
178	1	1	41.39636410009006	17.2605626599095	39.56774645915348	0	0	0
179	1	1	42.13074753723174	16.699710933254345	39.18548174987481	0	0	0
180	1	1	42.86513097437342	16.75033601913237	38.508637552195744	0	0	0
181	1	1	43.5995144115151	16.189484292477214	38.12637284291707	0	0	0
182	1	1	44.33389784865678	16.24010937835524	37.449528645238004	0	0	0
183	1	1	45.06828128579846	15.679257651700084	37.06726393595933	0	0	0
184	1	1	45.80266472294014	15.729882737578109	36.390419738280265	0	0	0
185	1	1	46.537048160081824	15.169031010922954	36.00815502900159	0	0	0
186	1	1	47.271431597223504	15.219656096800978	35.331310831322526	0	0	0
187	1	1	48.005815034365185	14.658804370145823	34.94904612204385	0	0	0
188	1	1	48.740198471506865	14.709429456023848	34.272201924364786	0	0	0
189	1	1	49.474581908648545	14.148577729368693	33.889937215086114	0	0	0
190	1	1	50.208965345790226	14.199202815246718	33.21309301740705	0	0	0
191	1	1	50.943348782931906	13.638351088591563	32.830828308128375	0	0	0
192	1	1	51.67773222007359	13.688976174469587	32.15398411044931	0	0	0
193	1	1	52.41211565721527	13.128124447814432	31.771719401170635	0	0	0
194	1	1	53.14649909435695	13.178749533692457	31.09487520349157	0	0	0
195	1	1	53.88088253149863	12.617897807037302	30.712610494212896	0	0	0
196	1	1	54.61526596864031	12.668522892915327	30.03576629653383	0	0	0
197	1	1	55.34964940578199	12.107671166260172	29.653501587255157	0	0	0
198	1	1	56.08403284292367	12.158296252138197	28.97665738957609	0	0	0
199	1	1	56.81841628006535	11.597444525483041	28.594392680297418	0	0	0
200	1	1	57.55279971720703	11.648069611361066	27.91754848261835	0	0	0
201	1	1	58.28718315434871	11.087217884705911	27.53528377333968	0	0	0
202	1	1	59.02156659149039	11.137842970583936	26.85843957566061	0	0	0
203	1	1	59.75595002863207	10.57699124392878	26.47617486638194	0	0	0
204	1	1	60.49033346577375	10.627616329806806	25.799330668702872	0	0	0
205	1	1	61.22471690291543	10.06676460315165	25.4170659594242	0	0	0
206	1	1	61.95910034005711	10.117389689029675	24.740221761745133	0	0	0
207	1	1	62.69348377719879	9.55653796237452	24.35795705246646	0	0	0
208	1	1	63.42786721434047	9.607163048252545	23.681112854787393	0	0	0
209	1	1	64.16225065148215	9.04631132159739	23.29884814550872	0	0	0
210	1	1	64.89663408862383	9.096936407475415	22.622003947829654	0	0	0
211	1	1	65.6310175257655	8.53608468082026	22.239739238550982	0	0	0
212	1	1	66.36540096290717	8.586709766698284	21.562895040871915	0	0	0
213	1	1	67.09978440004885	8.02585804004313	21.180630331593242	0	0	0
214	1	1	67.83416783719052	8.076483125921154	20.503786133914176	0	0	0
215	1	1	68.5685512743322	7.515631399265999	20.121521424635503	0	0	0
216	1	1	69.30293471147387	7.566256485144023	19.444677226956436	0	0	0
217	1	1	70.03731814861554	7.005404758488868	19.062412517677764	0	0	0
218	1	1	38.63104742807901	17.663602772945403	42.83552485686562	0	0	0
219	1	1	38.803264504634676	16.899331566757557	43.456999556217724	0	0	0
220	1	1	38.975481581190344	17.055408841111856	44.42961518583343	0	0	0
221	1	1	39.14769865774601	16.29113763492401	45.05108988518553	0	0	0
222	1	1	39.31991573430168	16.44721490927831	46.023705514801236	0	0	0
223	1	1	39.49213281085735	15.682943703090462	46.64518021415334	0	0	0
224	1	1	39.66434988741302	15.839020977444761	47.617795843769045	0	0	0
225	1	1	39.836566963968686	15.074749771256915	48.23927054312115	0	0	0
226	1	1	40.008784040524354	15.230827045611214	49.211886172736854	0	0	0
227	1	1	40.18100111708002	14.466555839423368	49.83336087208896	0	0	0
228	1	1	40.35321819363569	14.622633113777667	50.80597650170466	0	0	0
229	1	1	40.52543527019136	13.85836190758982	51.42745120105677	0	0	0
230	1	1	40.69765234674703	14.01443918194412	52.40006683067247	0	0	0
231	1	1	40.869869423302696	13.250167975756273	53.02154153002458	0	0	0
232	1	1	41.042086499858364	13.406245250110572	53.99415715964028	0	0	0
233	1	1	41.21430357641403	12.641974043922726	54.61563185899239	0	0	0
234	1	1	41.3865206529697	12.798051318277025	55.58824748860809	0	0	0
235	1	1	41.55873772952537	12.033780112089179	56.209722187960196	0	0	0
236	1	1	41.73095480608104	12.189857386443478	57.1823378175759	0	0	0
237	1	1	41.903171882636705	11.425586180255632	57.803812516928005	0	0	0
238	1	1	42.075388959192374	11.58166345460993	58.77642814654371	0	0	0
239	1	1	42.24760603574804	10.817392248422085	59.397902845895814	0	0	0
240	1	1	42.41982311230371	10.973469522776384	60.37051847551152	0	0	0
241	1	1	42.59204018885938	10.209198316588537	60.99199317486362	0	0	0
242	1	1	42.76425726541505	10.365275590942836	61.964608804479326	0	0	0
243	1	1	42.936474341970715	9.60100438475499	62.58608350383143	0	0	0
244	1	1	43.108691418526384	9.75708165910929	63.558699133447135	0	0	0
245	1	1	43.28090849508205	8.992810452921443	64.18017383279924	0	0	0
246	1	1	43.45312557163772	9.148887727275742	65.15278946241494	0	0	0
247	1	1	43.62534264819339	8.384616521087896	65.77426416176705	0	0	0
248	1	1	43.79755972474906	8.540693795442195	66.74687979138275	0	0	0
249	1	1	43.969776801304725	7.776422589254349	67.36835449073486	0	0	0
250	1	1	44.14199387786039	7.932499863608648	68.34097012035056	0	0	0
251	1	1	44.31421095441606	7.168228657420801	68.96244481970267	0	0	0
252	1	1	44.48642803097173	7.3243059317751005	69.93506044931837	0	0	0
253	1	1	44.6586451075274	6.560034725587254	70.55653514867048	0	0	0
254	1	1	44.83086218408307	6.716111999941553	71.52915077828618	0	0	0
255	1	1	45.003079260638735	5.951840793753707	72.15062547763829	0	0	0
256	1	1	45.1752963371944	6.107918068108006	73.12324110725399	0	0	0
257	1	1	45.34751341375007	5.34364686192016	73.7447158066061	0	0	0
258	1	1	45.51973049030574	5.499724136274459	74.7173314362218	0	0	0
259	1	1	45.69194756686141	4.735452930086613	75.3388061355739	0	0	0
260	1	1	45.86416464341708	4.891530204440912	76.3114217651896	0	0	0
261	1	1	38.42753584028825	19.013930881107253	41.94058576612904	0	0	0
262	1	1	38.39624132905316	19.866547665400034	42.46218453214445	0	0	0
263	1	1	38.36494681781807	20.744573839498383	41.98459612026161	0	0	0
264	1	1	38.333652306582984	21.597190623791164	42.506194886277015	0	0	0
265	1	1	38.302357795347895	22.475216797889512	42.028606474394174	0	0	0
266	1	1	38.271063284112806	23.327833582182294	42.55020524040958	0	0	0
267	1	1	38.23976877287772	24.205859756280642	42.07261682852674	0	0	0
268	1	1	38.20847426164263	25.058476540573423	42.59421559454215	0	0	0
269	1	1	38.17717975040754	25.93650271467177	42.11662718265931	0	0	0
270	1	1	38.14588523917245	26.789119498964553	42.638225948674716	0	0	0
271	1	1	38.11459072793736	27.6671456730629	42.160637536791874	0	0	0
272	1	1	38.08329621670227	28.519762457355682	42.68223630280728	0	0	0
273	1	1	38.052001705467184	29.39778863145403	42.20464789092444	0	0	0
274	1	1	38.020707194232095	30.250405415746812	42.72624665693985	0	0	0
275	1	1	37.989412682997006	31.12843158984516	42.24865824505701	0	0	0
276	1	1	37.95811817176192	31.98104837413794	42.77025701107242	0	0	0
277	1	1	37.92682366052683	32.85907454823629	42.292668599189575	0	0	0
278	1	1	37.89552914929174	33.71169133252907	42.814267365204984	0	0	0
279	1	1	37.86423463805665	34.58971750662742	42.33667895332214	0	0	0
280	1	1	37.83294012682156	35.4423342909202	42.85827771933755	0	0	0
281	1	1	37.80164561558647	36.32036046501855	42.38068930745471	0	0	0
282	1	1	37.770351104351384	37.17297724931133	42.90228807347012	0	0	0
283	1	1	37.739056593116295	38.05100342340968	42.424699661587276	0	0	0
284	1	1	37.70776208188121	38.90362020770246	42.946298427602684	0	0	0
285	1	1	37.67646757064612	39.78164638180081	42.46871001571984	0	0	0
286	1	1	37.64517305941103	40.63426316609359	42.99030878173525	0	0	0
287	1	1	37.61387854817594	41.51228934019194	42.51272036985241	0	0	0
288	1	1	37.58258403694085	42.36490612448472	43.03431913586782	0	0	0
289	1	1	37.55128952570576	43.24293229858307	42.55673072398498	0	0	0
290	1	1	37.51999501447067	44.09554908287585	43.078329490000385	0	0	0
291	1	1	37.488700503235584	44.9735752569742	42.600741078117544	0	0	0
292	1	1	37.457405992000496	45.82619204126698	43.12233984413295	0	0	0
293	1	1	37.42611148076541	46.70421821536533	42.64475143225011	0	0	0
294	1	1	37.39481696953032	47.55683499965811	43.16635019826552	0	0	0
295	1	1	37.36352245829523	48.43486117375646	42.68876178638268	0	0	0
296	1	1	37.33222794706014	49.28747795804924	43.210360552398086	0	0	0
297	1	1	37.30093343582505	50.16550413214759	42.732772140515245	0	0	0
298	1	1	37.26963892458996	51.01812091644037	43.25437090653065	0	0	0
299	1	1	37.23834441335487	51.89614709053872	42.77678249464781	0	0	0
300	1	1	37.207049902119785	52.748763874831496	43.29838126066322	0	0	0
301	1	1	37.175755390884696	53.62679004892985	42.82079284878038	0	0	0
302	1	1	37.14446087964961	54.479406833222626	43.34239161479579	0	0	0
303	1	1	37.11316636841452	55.35743300732098	42.864803202912945	0	0	0
304	1	1	37.08187185717943	56.210049791613756	43.386401968928354	0	0	0
305	1	1	36.396010282221155	56.13364599758856	44.110112104448305	0	0	0
306	1	1	35.71014870726288	55.70562330325725	44.69866156977227	0	0	0
307	1	1	35.02428713230461	56.001310744445895	45.363614829121424	0	0	0
308	1	1	34.33842555734633	55.573288050114584	45.95216429444539	0	0	0
309	1	1	33.65256398238806	55.86897549130323	46.61711755379454	0	0	0
310	1	1	32.966702407429786	55.44095279697192	47.20566701911851	0	0	0
311	1	1	32.28084083247151	55.73664023816057	47.87062027846766	0	0	0
312	1	1	31.594979257513238	55.30861754382926	48.45916974379163	0	0	0
313	1	1	30.909117682554964	55.604304985017905	49.12412300314078	0	0	0
314	1	1	30.22325610759669	55.17628229068659	49.712672468464746	0	0	0
315	1	1	29.537394532638416	55.47196973187524	50.3776257278139	0	0	0
316	1	1	28.851532957680142	55.04394703754393	50.966175193137865	0	0	0
317	1	1	28.165671382721868	55.33963447873258	51.63112845248702	0	0	0
318	1	1	27.479809807763594	54.911611784401266	52.219677917810984	0	0	0
319	1	1	26.79394823280532	55.207299225589914	52.88463117716014	0	0	0
320	1	1	26.108086657847046	54.7792765312586	53.4731806424841	0	0	0
321	1	1	25.422225082888772	55.07496397244725	54.13813390183326	0	0	0
322	1	1	24.7363635079305	54.64694127811594	54.72668336715722	0	0	0
323	1	1	24.050501932972224	54.94262871930459	55.391636626506376	0	0	0
324	1	1	23.36464035801395	54.514606024973276	55.98018609183034	0	0	0
325	1	1	22.678778783055677	54.81029346616192	56.645139351179495	0	0	0
326	1	1	21.992917208097403	54.38227077183061	57.23368881650346	0	0	0
327	1	1	21.30705563313913	54.67795821301926	57.898642075852614	0	0	0
328	1	1	20.621194058180855	54.24993551868795	58.48719154117658	0	0	0
329	1	1	19.93533248322258	54.545622959876596	59.15214480052573	0	0	0
330	1	1	19.249470908264307	54.117600265545285	59.7406942658497	0	0	0
331	1	1	18.563609333306033	54.41328770673393	60.40564752519885	0	0	0
332	1	1	17.87774775834776	53.98526501240262	60.994196990522816	0	0	0
333	1	1	17.191886183389485	54.28095245359127	61.65915024987197	0	0	0
334	1	1	16.50602460843121	53.85292975925996	62.247699715195935	0	0	0
335	1	1	15.820163033472937	54.148617200448605	62.91265297454509	0	0	0
336	1	1	15.134301458514663	53.720594506117294	63.501202439869054	0	0	0
337	1	1	14.44843988355639	54.01628194730594	64.16615569921821	0	0	0
338	1	1	13.762578308598115	53.58825925297463	64.75470516454217	0	0	0
339	1	1	13.076716733639842	53.88394669416328	65.41965842389133	0	0	0
340	1	1	12.390855158681568	53.45592399983197	66.0082078892153	0	0	0
341	1	1	11.704993583723294	53.751611441020614	66.67316114856446	0	0	0
342	1	1	11.01913200876502	53.3235887466893	67.26171061388843	0	0	0
343	1	1	10.333270433806746	53.61927618787795	67.92666387323759	0	0	0
344	1	1	9.647408858848472	53.19125349354664	68.51521333856155	0	0	0
345	1	1	8.961547283890198	53.48694093473529	69.18016659791071	0	0	0
346	1	1	8.275685708931924	53.058918240403976	69.76871606323468	0	0	0
347	1	1	7.589824133973649	53.35460568159262	70.43366932258384	0	0	0
348	1	1	36.84024147742231	56.96536767678449	42.77721427049737	0	0	0
349	1	1	36.59861109766519	57.924086002490576	42.627301190568524	0	0	0
350	1	1	36.35698071790807	58.27361662976568	41.72207022546895	0	0	0
351	1	1	36.115350338150954	59.232334955471764	41.5721571455401	0	0	0
352	1	1	35.873719958393835	59.581865582746865	40.66692618044053	0	0	0
353	1	1	35.632089578636716	60.54058390845295	40.51701310051168	0	0	0
354	1	1	35.3904591988796	60.89011453572805	39.611782135412106	0	0	0
355	1	1	35.14882881912248	61.84883286143414	39.46186905548326	0	0	0
356	1	1	34.90719843936536	62.19836348870924	38.556638090383686	0	0	0
357	1	1	34.66556805960824	63.15708181441533	38.40672501045484	0	0	0
358	1	1	34.42393767985112	63.50661244169043	37.501494045355265	0	0	0
359	1	1	34.182307300094	64.46533076739651	37.35158096542642	0	0	0
360	1	1	33.940676920336884	64.81486139467161	36.446350000326845	0	0	0
361	1	1	33.699046540579765	65.7735797203777	36.296436920398	0	0	0
362	1	1	33.457416160822646	66.1231103476528	35.391205955298425	0	0	0
363	1	1	33.21578578106553	67.08182867335888	35.24129287536958	0	0	0
364	1	1	32.97415540130841	67.43135930063399	34.336061910270004	0	0	0
365	1	1	32.73252502155129	68.39007762634007	34.18614883034116	0	0	0
366	1	1	32.49089464179417	68.73960825361517	33.280917865241584	0	0	0
367	1	1	32.24926426203705	69.69832657932126	33.13100478531274	0	0	0
368	1	1	32.00763388227993	70.04785720659636	32.22577382021316	0	0	0
369	1	1	31.766003502522814	71.00657553230245	32.07586074028432	0	0	0
370	1	1	31.524373122765695	71.35610615957755	31.170629775184747	0	0	0
371	1	1	31.282742743008576	72.31482448528364	31.020716695255906	0	0	0
372	1	1	31.041112363251457	72.66435511255874	30.115485730156333	0	0	0
373	1	1	30.79948198349434	73.62307343826483	29.965572650227493	0	0	0
374	1	1	30.55785160373722	73.97260406553993	29.06034168512792	0	0	0
375	1	1	30.3162212239801	74.93132239124601	28.91042860519908	0	0	0
376	1	1	30.074590844222982	75.28085301852111	28.005197640099507	0	0	0
377	1	1	29.832960464465863	76.2395713442272	27.855284560170666	0	0	0
378	1	1	29.591330084708744	76.5891019715023	26.950053595071093	0	0	0
379	1	1	29.349699704951625	77.54782029720839	26.800140515142253	0	0	0
380	1	1	29.108069325194506	77.89735092448349	25.89490955004268	0	0	0
381	1	1	28.866438945437388	78.85606925018958	25.74499647011384	0	0	0
382	1	1	28.62480856568027	79.20559987746468	24.839765505014267	0	0	0
383	1	1	28.38317818592315	80.16431820317077	24.689852425085427	0	0	0
384	1	1	28.14154780616603	80.51384883044587	23.784621459985853	0	0	0
385	1	1	27.899917426408912	81.47256715615195	23.634708380057013	0	0	0
386	1	1	27.658287046651793	81.82209778342705	22.72947741495744	0	0	0
387	1	1	27.416656666894674	82.78081610913314	22.5795643350286	0	0	0
388	1	1	27.175026287137555	83.13034673640824	21.674333369929027	0	0	0
389	1	1	26.933395907380437	84.08906506211433	21.524420290000187	0	0	0
390	1	1	26.691765527623318	84.43859568938943	20.619189324900614	0	0	0
391	1	1	37.97802484437489	56.38496369315253	43.794219269430826	0	0	0
392	1	1	38.874177831570364	56.332534925108924	44.234856362538146	0	0	0
393	1	1	39.770330818765835	56.68792345756779	44.50057955410669	0	0	0
394	1	1	40.666483805961306	56.63549468952419	44.94121664721401	0	0	0
395	1	1	41.56263679315678	56.990883221983054	45.20693983878256	0	0	0
396	1	1	42.45878978035225	56.93845445393945	45.64757693188988	0	0	0
397	1	1	43.35494276754772	57.29384298639832	45.91330012345843	0	0	0
398	1	1	44.25109575474319	57.24141421835471	46.35393721656575	0	0	0
399	1	1	45.14724874193866	57.59680275081358	46.619660408134294	0	0	0
400	1	1	46.04340172913413	57.544373982769976	47.060297501241614	0	0	0
401	1	1	46.9395547163296	57.89976251522884	47.32602069281016	0	0	0
402	1	1	47.835707703525074	57.84733374718524	47.76665778591748	0	0	0
403	1	1	48.731860690720545	58.20272227964411	48.03238097748603	0	0	0
404	1	1	49.628013677916016	58.1502935116005	48.47301807059335	0	0	0
405	1	1	50.52416666511149	58.50568204405937	48.738741262161895	0	0	0
406	1	1	51.42031965230696	58.453253276015765	49.179378355269215	0	0	0
407	1	1	52.31647263950243	58.80864180847463	49.44510154683776	0	0	0
408	1	1	53.2126256266979	58.75621304043103	49.88573863994508	0	0	0
409	1	1	54.10877861389337	59.111601572889896	50.15146183151363	0	0	0
410	1	1	55.00493160108884	59.05917280484629	50.59209892462095	0	0	0
411	1	1	55.90108458828431	59.41456133730516	50.857822116189496	0	0	0
412	1	1	56.797237575479784	59.362132569261554	51.298459209296816	0	0	0
413	1	1	57.693390562675255	59.71752110172042	51.56418240086536	0	0	0
414	1	1	58.589543549870726	59.66509233367682	52.00481949397268	0	0	0
415	1	1	59.4856965370662	60.020480866135685	52.27054268554123	0	0	0
416	1	1	60.38184952426167	59.96805209809208	52.71117977864855	0	0	0
417	1	1	61.27800251145714	60.32344063055095	52.9769029702171	0	0	0
418	1	1	62.17415549865261	60.27101186250734	53.41754006332442	0	0	0
419	1	1	63.07030848584808	60.62640039496621	53.683263254892964	0	0	0
420	1	1	63.96646147304355	60.57397162692261	54.123900348000284	0	0	0
421	1	1	64.86261446023902	60.929360159381474	54.38962353956883	0	0	0
422	1	1	65.75876744743448	60.87693139133787	54.83026063267615	0	0	0
423	1	1	66.65492043462994	61.23231992379674	55.0959838242447	0	0	0
424	1	1	67.55107342182541	61.17989115575313	55.53662091735202	0	0	0
425	1	1	68.44722640902087	61.535279688212	55.802344108920565	0	0	0
426	1	1	69.34337939621633	61.482850920168396	56.242981202027885	0	0	0
427	1	1	70.2395323834118	61.83823945262726	56.50870439359643	0	0	0
428	1	1	71.13568537060726	61.78581068458366	56.94934148670375	0	0	0
429	1	1	72.03183835780273	62.14119921704253	57.2150646782723	0	0	0
430	1	1	72.92799134499819	62.08877044899892	57.65570177137962	0	0	0
431	1	1	73.82414433219365	62.44415898145779	57.921424962948166	0	0	0
432	1	1	74.72029731938912	62.391730213414185	58.362062056055485	0	0	0
433	1	1	75.61645030658458	62.74711874587305	58.62778524762403	0	0	0
434	1	1	76.51260329378005	62.69468997782945	59.06842234073135	0	0	0
435	1	1	76.98240208638379	61.863315656885604	58.771596073458355	0	0	0
436	1	1	77.45220087898753	61.291737508530694	58.0988498250175	0	0	0
437	1	1	77.92199967159127	60.42333309290279	58.2574778975205	0	0	0
438	1	1	78.391798464195	59.85175494454788	57.58473164907965	0	0	0
439	1	1	78.86159725679875	58.98335052891997	57.74335972158265	0	0	0
440	1	1	79.33139604940249	58.41177238056506	57.0706134731418	0	0	0
441	1	1	79.80119484200623	57.543367964937154	57.2292415456448	0	0	0
442	1	1	80.27099363460997	56.971789816582245	56.556495297203945	0	0	0
443	1	1	80.7407924272137	56.10338540095434	56.715123369706944	0	0	0
444	1	1	81.21059121981745	55.53180725259943	56.04237712126609	0	0	0
445	1	1	81.68039001242119	54.66340283697152	56.20100519376909	0	0	0