bb300nuc5bl50bn4d30tot800V2

801 atoms
800 bonds
814 angles

1 atom types
1 bond types
1 angle types

-1000 1000 xlo xhi
-1000 1000 ylo yhi
-1000 1000 zlo zhi

Masses

1 1

Atoms

1	1	1	0.0	0.0	0.0	0	0	0
2	1	1	0.0	0.0	1.0	0	0	0
3	1	1	0.0	-0.49999999999999994	1.8660254037844388	0	0	0
4	1	1	0.0	0.0	2.7320508075688776	0	0	0
5	1	1	0.0	-0.49999999999999994	3.5980762113533165	0	0	0
6	1	1	0.0	0.0	4.464101615137755	0	0	0
7	1	1	0.0	-0.49999999999999994	5.330127018922194	0	0	0
8	1	1	0.0	0.0	6.196152422706632	0	0	0
9	1	1	0.0	-0.49999999999999994	7.06217782649107	0	0	0
10	1	1	0.0	0.0	7.928203230275509	0	0	0
11	1	1	0.0	-0.49999999999999994	8.794228634059948	0	0	0
12	1	1	0.0	0.0	9.660254037844387	0	0	0
13	1	1	0.0	-0.49999999999999994	10.526279441628827	0	0	0
14	1	1	0.0	0.0	11.392304845413266	0	0	0
15	1	1	0.0	-0.49999999999999994	12.258330249197705	0	0	0
16	1	1	0.0	0.0	13.124355652982144	0	0	0
17	1	1	0.0	-0.49999999999999994	13.990381056766584	0	0	0
18	1	1	0.0	0.0	14.856406460551023	0	0	0
19	1	1	0.0	-0.49999999999999994	15.722431864335462	0	0	0
20	1	1	0.0	0.0	16.5884572681199	0	0	0
21	1	1	0.0	-0.49999999999999994	17.454482671904337	0	0	0
22	1	1	0.0	0.0	18.320508075688775	0	0	0
23	1	1	0.0	-0.49999999999999994	19.186533479473212	0	0	0
24	1	1	0.0	0.0	20.05255888325765	0	0	0
25	1	1	0.0	-0.49999999999999994	20.918584287042087	0	0	0
26	1	1	0.0	0.0	21.784609690826525	0	0	0
27	1	1	0.0	-0.49999999999999994	22.650635094610962	0	0	0
28	1	1	0.0	0.0	23.5166604983954	0	0	0
29	1	1	0.0	-0.49999999999999994	24.382685902179837	0	0	0
30	1	1	0.0	0.0	25.248711305964274	0	0	0
31	1	1	0.0	-0.49999999999999994	26.114736709748712	0	0	0
32	1	1	0.0	0.0	26.98076211353315	0	0	0
33	1	1	0.0	-0.49999999999999994	27.846787517317587	0	0	0
34	1	1	0.0	0.0	28.712812921102024	0	0	0
35	1	1	0.0	-0.49999999999999994	29.578838324886462	0	0	0
36	1	1	0.0	0.0	30.4448637286709	0	0	0
37	1	1	0.0	-0.49999999999999994	31.310889132455337	0	0	0
38	1	1	0.0	0.0	32.17691453623978	0	0	0
39	1	1	0.0	-0.49999999999999994	33.04293994002422	0	0	0
40	1	1	0.0	0.0	33.90896534380866	0	0	0
41	1	1	0.0	-0.49999999999999994	34.7749907475931	0	0	0
42	1	1	0.0	0.0	35.64101615137754	0	0	0
43	1	1	0.0	-0.49999999999999994	36.50704155516198	0	0	0
44	1	1	0.0	0.0	37.373066958946424	0	0	0
45	1	1	0.0	-0.49999999999999994	38.239092362730865	0	0	0
46	1	1	0.0	0.0	39.105117766515306	0	0	0
47	1	1	0.0	-0.49999999999999994	39.97114317029975	0	0	0
48	1	1	0.0	0.0	40.83716857408419	0	0	0
49	1	1	0.0	-0.49999999999999994	41.70319397786863	0	0	0
50	1	1	0.0	0.0	42.56921938165307	0	0	0
51	1	1	0.0	-0.49999999999999994	43.43524478543751	0	0	0
52	1	1	0.3065755590301582	0.10506697493265266	44.170027326364554	0	0	0
53	1	1	0.6131511180603157	0.26167907575181115	45.108901160530976	0	0	0
54	1	1	0.9197266770904733	1.153073717498009	45.442708019764744	0	0	0
55	1	1	1.2263022361206308	1.3096858183171676	46.381581853931166	0	0	0
56	1	1	1.5328777951507884	2.2010804600633653	46.715388713164934	0	0	0
57	1	1	1.839453354180946	2.3576925608825237	47.654262547331356	0	0	0
58	1	1	2.1460289132111035	3.2490872026287216	47.988069406565124	0	0	0
59	1	1	2.452604472241261	3.40569930344788	48.926943240731546	0	0	0
60	1	1	2.759180031271419	4.297093945194078	49.260750099965314	0	0	0
61	1	1	3.0657555903015767	4.453706046013236	50.199623934131736	0	0	0
62	1	1	3.3723311493317345	5.345100687759434	50.533430793365504	0	0	0
63	1	1	3.6789067083618923	5.501712788578592	51.472304627531926	0	0	0
64	1	1	3.98548226739205	6.39310743032479	51.806111486765694	0	0	0
65	1	1	4.292057826422208	6.549719531143948	52.744985320932116	0	0	0
66	1	1	4.5986333854523656	7.4411141728901455	53.078792180165884	0	0	0
67	1	1	4.905208944482523	7.597726273709304	54.017666014332306	0	0	0
68	1	1	5.211784503512681	8.489120915455501	54.351472873566074	0	0	0
69	1	1	5.518360062542839	8.64573301627466	55.290346707732496	0	0	0
70	1	1	5.824935621572997	9.537127658020857	55.624153566966264	0	0	0
71	1	1	6.131511180603154	9.693739758840016	56.563027401132686	0	0	0
72	1	1	6.438086739633312	10.585134400586213	56.896834260366454	0	0	0
73	1	1	6.74466229866347	10.741746501405371	57.835708094532876	0	0	0
74	1	1	7.051237857693628	11.633141143151569	58.169514953766644	0	0	0
75	1	1	7.357813416723785	11.789753243970727	59.108388787933066	0	0	0
76	1	1	7.664388975753943	12.681147885716925	59.442195647166834	0	0	0
77	1	1	7.970964534784101	12.837759986536083	60.381069481333256	0	0	0
78	1	1	8.277540093814258	13.72915462828228	60.714876340567024	0	0	0
79	1	1	8.584115652844416	13.885766729101439	61.653750174733446	0	0	0
80	1	1	8.890691211874573	14.777161370847637	61.987557033967214	0	0	0
81	1	1	9.197266770904731	14.933773471666795	62.926430868133636	0	0	0
82	1	1	9.503842329934889	15.825168113412992	63.260237727367404	0	0	0
83	1	1	9.810417888965047	15.98178021423215	64.19911156153383	0	0	0
84	1	1	10.116993447995204	16.87317485597835	64.5329184207676	0	0	0
85	1	1	10.423569007025362	17.02978695679751	65.47179225493402	0	0	0
86	1	1	10.73014456605552	17.921181598543708	65.80559911416779	0	0	0
87	1	1	11.036720125085678	18.077793699362868	66.7444729483342	0	0	0
88	1	1	11.343295684115835	18.969188341109067	67.07827980756798	0	0	0
89	1	1	11.649871243145993	19.125800441928227	68.0171536417344	0	0	0
90	1	1	11.956446802176151	20.017195083674427	68.35096050096817	0	0	0
91	1	1	12.263022361206309	20.173807184493587	69.28983433513459	0	0	0
92	1	1	12.569597920236466	21.065201826239786	69.62364119436836	0	0	0
93	1	1	12.876173479266624	21.221813927058946	70.56251502853478	0	0	0
94	1	1	13.182749038296782	22.113208568805145	70.89632188776855	0	0	0
95	1	1	13.48932459732694	22.269820669624306	71.83519572193497	0	0	0
96	1	1	13.795900156357098	23.161215311370505	72.16900258116874	0	0	0
97	1	1	14.102475715387255	23.317827412189665	73.10787641533516	0	0	0
98	1	1	14.409051274417413	24.209222053935864	73.44168327456893	0	0	0
99	1	1	14.71562683344757	24.365834154755024	74.38055710873535	0	0	0
100	1	1	15.022202392477729	25.257228796501224	74.71436396796912	0	0	0
101	1	1	15.328777951507886	25.413840897320384	75.65323780213554	0	0	0
102	1	1	0.6186826250344553	-1.2828203011642754	43.36873023390514	0	0	0
103	1	1	1.2373652500689092	-1.9275052928045344	42.919716791974636	0	0	0
104	1	1	1.8560478751033633	-2.6387048359771677	43.25352365120841	0	0	0
105	1	1	2.4747305001378175	-3.2833898276174267	42.80451020927791	0	0	0
106	1	1	3.0934131251722716	-3.99458937079006	43.13831706851168	0	0	0
107	1	1	3.7120957502067258	-4.639274362430319	42.68930362658118	0	0	0
108	1	1	4.33077837524118	-5.350473905602952	43.023110485814954	0	0	0
109	1	1	4.949461000275634	-5.995158897243211	42.57409704388445	0	0	0
110	1	1	5.568143625310088	-6.706358440415844	42.907903903118225	0	0	0
111	1	1	6.186826250344542	-7.3510434320561036	42.45889046118772	0	0	0
112	1	1	6.8055088753789965	-8.062242975228736	42.792697320421496	0	0	0
113	1	1	7.424191500413451	-8.706927966868996	42.34368387849099	0	0	0
114	1	1	8.042874125447904	-9.418127510041629	42.67749073772477	0	0	0
115	1	1	8.661556750482358	-10.062812501681888	42.228477295794264	0	0	0
116	1	1	9.280239375516812	-10.774012044854521	42.56228415502804	0	0	0
117	1	1	9.898922000551266	-11.41869703649478	42.113270713097535	0	0	0
118	1	1	10.51760462558572	-12.129896579667413	42.44707757233131	0	0	0
119	1	1	11.136287250620175	-12.774581571307673	41.998064130400806	0	0	0
120	1	1	11.754969875654629	-13.485781114480305	42.33187098963458	0	0	0
121	1	1	12.373652500689083	-14.130466106120565	41.88285754770408	0	0	0
122	1	1	12.992335125723537	-14.841665649293198	42.21666440693785	0	0	0
123	1	1	13.611017750757991	-15.486350640933457	41.76765096500735	0	0	0
124	1	1	14.229700375792445	-16.197550184106092	42.10145782424112	0	0	0
125	1	1	14.8483830008269	-16.84223517574635	41.65244438231062	0	0	0
126	1	1	15.467065625861354	-17.553434718918982	41.986251241544394	0	0	0
127	1	1	16.085748250895808	-18.19811971055924	41.53723779961389	0	0	0
128	1	1	16.70443087593026	-18.909319253731873	41.871044658847666	0	0	0
129	1	1	17.323113500964713	-19.55400424537213	41.42203121691716	0	0	0
130	1	1	17.941796125999165	-20.265203788544763	41.75583807615094	0	0	0
131	1	1	18.560478751033617	-20.90988878018502	41.30682463422043	0	0	0
132	1	1	19.17916137606807	-21.621088323357654	41.64063149345421	0	0	0
133	1	1	19.797844001102522	-22.26577331499791	41.191618051523704	0	0	0
134	1	1	20.416526626136974	-22.976972858170544	41.52542491075748	0	0	0
135	1	1	21.035209251171427	-23.621657849810802	41.076411468826976	0	0	0
136	1	1	21.65389187620588	-24.332857392983435	41.41021832806075	0	0	0
137	1	1	22.27257450124033	-24.977542384623693	40.96120488613025	0	0	0
138	1	1	22.891257126274784	-25.688741927796325	41.29501174536402	0	0	0
139	1	1	23.509939751309236	-26.333426919436583	40.84599830343352	0	0	0
140	1	1	24.12862237634369	-27.044626462609216	41.17980516266729	0	0	0
141	1	1	24.74730500137814	-27.689311454249474	40.73079172073679	0	0	0
142	1	1	25.365987626412593	-28.400510997422106	41.064598579970564	0	0	0
143	1	1	25.984670251447046	-29.045195989062364	40.61558513804006	0	0	0
144	1	1	26.603352876481498	-29.756395532234997	40.949391997273835	0	0	0
145	1	1	27.22203550151595	-30.401080523875255	40.50037855534333	0	0	0
146	1	1	27.840718126550403	-31.112280067047887	40.83418541457711	0	0	0
147	1	1	28.459400751584855	-31.756965058688145	40.3851719726466	0	0	0
148	1	1	29.078083376619308	-32.46816460186078	40.71897883188038	0	0	0
149	1	1	29.69676600165376	-33.11284959350104	40.269965389949874	0	0	0
150	1	1	30.315448626688212	-33.82404913667367	40.60377224918365	0	0	0
151	1	1	30.934131251722665	-34.46873412831393	40.154758807253145	0	0	0
152	1	1	-0.9252581840646178	-0.8229569626190287	43.63423245620467	0	0	0
153	1	1	-1.850516368129234	-1.20213973195975	43.645082352819415	0	0	0
154	1	1	-2.77577455219385	-1.3823348305333083	43.97888921205318	0	0	0
155	1	1	-3.7010327362584663	-1.7615175998740296	43.989739108667926	0	0	0
156	1	1	-4.626290920323083	-1.9417126984475879	44.323545967901694	0	0	0
157	1	1	-5.551549104387699	-2.320895467788309	44.33439586451644	0	0	0
158	1	1	-6.476807288452315	-2.5010905663618677	44.668202723750206	0	0	0
159	1	1	-7.402065472516932	-2.8802733357025887	44.67905262036495	0	0	0
160	1	1	-8.327323656581548	-3.0604684342761472	45.01285947959872	0	0	0
161	1	1	-9.252581840646164	-3.4396512036168683	45.02370937621346	0	0	0
162	1	1	-10.177840024710779	-3.619846302190427	45.35751623544723	0	0	0
163	1	1	-11.103098208775394	-3.999029071531148	45.36836613206197	0	0	0
164	1	1	-12.02835639284001	-4.179224170104706	45.70217299129574	0	0	0
165	1	1	-12.953614576904625	-4.558406939445427	45.71302288791048	0	0	0
166	1	1	-13.87887276096924	-4.7386020380189855	46.04682974714425	0	0	0
167	1	1	-14.804130945033856	-5.1177848073597065	46.057679643758995	0	0	0
168	1	1	-15.729389129098472	-5.297979905933265	46.39148650299276	0	0	0
169	1	1	-16.65464731316309	-5.677162675273986	46.402336399607506	0	0	0
170	1	1	-17.579905497227706	-5.857357773847545	46.736143258841274	0	0	0
171	1	1	-18.505163681292323	-6.236540543188266	46.74699315545602	0	0	0
172	1	1	-19.43042186535694	-6.416735641761824	47.080800014689785	0	0	0
173	1	1	-20.355680049421558	-6.795918411102545	47.09164991130453	0	0	0
174	1	1	-21.280938233486175	-6.976113509676104	47.4254567705383	0	0	0
175	1	1	-22.206196417550792	-7.355296279016825	47.43630666715304	0	0	0
176	1	1	-23.13145460161541	-7.535491377590383	47.77011352638681	0	0	0
177	1	1	-24.056712785680027	-7.914674146931104	47.78096342300155	0	0	0
178	1	1	-24.981970969744644	-8.094869245504663	48.11477028223532	0	0	0
179	1	1	-25.90722915380926	-8.474052014845384	48.12562017885006	0	0	0
180	1	1	-26.83248733787388	-8.654247113418942	48.45942703808383	0	0	0
181	1	1	-27.757745521938496	-9.033429882759663	48.470276934698575	0	0	0
182	1	1	-28.683003706003113	-9.21362498133322	48.80408379393234	0	0	0
183	1	1	-29.60826189006773	-9.592807750673941	48.814933690547086	0	0	0
184	1	1	-30.533520074132348	-9.773002849247499	49.148740549780854	0	0	0
185	1	1	-31.458778258196965	-10.15218561858822	49.1595904463956	0	0	0
186	1	1	-32.38403644226158	-10.332380717161778	49.493397305629365	0	0	0
187	1	1	-33.3092946263262	-10.711563486502499	49.50424720224411	0	0	0
188	1	1	-34.23455281039082	-10.891758585076056	49.83805406147788	0	0	0
189	1	1	-35.159810994455434	-11.270941354416777	49.84890395809262	0	0	0
190	1	1	-36.08506917852005	-11.451136452990335	50.18271081732639	0	0	0
191	1	1	-37.01032736258467	-11.830319222331056	50.19356071394113	0	0	0
192	1	1	-37.935585546649286	-12.010514320904614	50.5273675731749	0	0	0
193	1	1	-38.8608437307139	-12.389697090245335	50.53821746978964	0	0	0
194	1	1	-39.78610191477852	-12.569892188818892	50.87202432902341	0	0	0
195	1	1	-40.71136009884314	-12.949074958159613	50.882874225638155	0	0	0
196	1	1	-41.636618282907754	-13.129270056733171	51.21668108487192	0	0	0
197	1	1	-42.56187646697237	-13.508452826073892	51.227530981486666	0	0	0
198	1	1	-43.48713465103699	-13.68864792464745	51.561337840720434	0	0	0
199	1	1	-44.412392835101606	-14.06783069398817	51.57218773733518	0	0	0
200	1	1	-45.33765101916622	-14.248025792561728	51.905994596568945	0	0	0
201	1	1	-46.26290920323084	-14.62720856190245	51.91684449318369	0	0	0
202	1	1	-46.423003023279755	-15.141006912549766	51.07400333160326	0	0	0
203	1	1	-46.58309684332867	-15.164548755842674	50.087182298995764	0	0	0
204	1	1	-46.74319066337758	-16.03093176071601	49.61415961703559	0	0	0
205	1	1	-46.903284483426496	-16.054473604008916	48.627338584428095	0	0	0
206	1	1	-47.06337830347541	-16.92085660888225	48.15431590246792	0	0	0
207	1	1	-47.223472123524324	-16.944398452175157	47.16749486986043	0	0	0
208	1	1	-47.38356594357324	-17.810781457048492	46.69447218790025	0	0	0
209	1	1	-47.54365976362215	-17.8343233003414	45.70765115529276	0	0	0
210	1	1	-47.703753583671066	-18.700706305214734	45.234628473332585	0	0	0
211	1	1	-47.86384740371998	-18.72424814850764	44.24780744072509	0	0	0
212	1	1	-48.023941223768894	-19.590631153380976	43.774784758764916	0	0	0
213	1	1	-48.18403504381781	-19.614172996673883	42.78796372615742	0	0	0
214	1	1	-48.34412886386672	-20.480556001547217	42.31494104419725	0	0	0
215	1	1	-48.504222683915636	-20.504097844840125	41.32812001158975	0	0	0
216	1	1	-48.66431650396455	-21.37048084971346	40.85509732962958	0	0	0
217	1	1	-48.82441032401346	-21.394022693006367	39.868276297022085	0	0	0
218	1	1	-48.98450414406238	-22.2604056978797	39.39525361506191	0	0	0
219	1	1	-49.14459796411129	-22.28394754117261	38.40843258245442	0	0	0
220	1	1	-49.304691784160205	-23.150330546045943	37.93540990049424	0	0	0
221	1	1	-49.46478560420912	-23.17387238933885	36.94858886788675	0	0	0
222	1	1	-49.62487942425803	-24.040255394212185	36.475566185926574	0	0	0
223	1	1	-49.78497324430695	-24.063797237505092	35.48874515331908	0	0	0
224	1	1	-49.94506706435586	-24.930180242378427	35.015722471358906	0	0	0
225	1	1	-50.105160884404775	-24.953722085671334	34.02890143875141	0	0	0
226	1	1	-50.26525470445369	-25.82010509054467	33.55587875679124	0	0	0
227	1	1	-50.4253485245026	-25.843646933837576	32.56905772418374	0	0	0
228	1	1	-50.58544234455152	-26.71002993871091	32.09603504222357	0	0	0
229	1	1	-50.74553616460043	-26.733571782003818	31.109214009616075	0	0	0
230	1	1	-50.905629984649345	-27.599954786877152	30.636191327655897	0	0	0
231	1	1	-51.06572380469826	-27.62349663017006	29.649370295048403	0	0	0
232	1	1	-51.22581762474717	-28.489879635043394	29.176347613088225	0	0	0
233	1	1	-51.385911444796086	-28.5134214783363	28.18952658048073	0	0	0
234	1	1	-51.546005264845	-29.379804483209636	27.716503898520553	0	0	0
235	1	1	-51.706099084893914	-29.403346326502543	26.72968286591306	0	0	0
236	1	1	-51.86619290494283	-30.269729331375878	26.25666018395288	0	0	0
237	1	1	-52.02628672499174	-30.293271174668785	25.269839151345387	0	0	0
238	1	1	-52.186380545040656	-31.15965417954212	24.79681646938521	0	0	0
239	1	1	-52.34647436508957	-31.183196022835027	23.809995436777715	0	0	0
240	1	1	-52.506568185138484	-32.04957902770836	23.336972754817538	0	0	0
241	1	1	-52.6666620051874	-32.073120871001265	22.350151722210043	0	0	0
242	1	1	-52.82675582523631	-32.9395038758746	21.877129040249866	0	0	0
243	1	1	-52.986849645285226	-32.9630457191675	20.89030800764237	0	0	0
244	1	1	-53.14694346533414	-33.82942872404084	20.417285325682194	0	0	0
245	1	1	-53.30703728538305	-33.85297056733374	19.4304642930747	0	0	0
246	1	1	-53.46713110543197	-34.719353572207076	18.957441611114522	0	0	0
247	1	1	-53.62722492548088	-34.74289541549998	17.970620578507027	0	0	0
248	1	1	-53.787318745529795	-35.609278420373315	17.49759789654685	0	0	0
249	1	1	-53.94741256557871	-35.63282026366622	16.510776863939356	0	0	0
250	1	1	-54.10750638562762	-36.49920326853955	16.037754181979178	0	0	0
251	1	1	-54.26760020567654	-36.52274511183246	15.050933149371685	0	0	0
252	1	1	-46.92775017335677	-13.883299641027552	51.984564518912904	0	0	0
253	1	1	-47.59259114348269	-13.272915630312632	52.41516624197679	0	0	0
254	1	1	-48.257432113608616	-12.594811593868496	52.10185904416578	0	0	0
255	1	1	-48.92227308373454	-11.984427583153575	52.532460767229665	0	0	0
256	1	1	-49.58711405386046	-11.30632354670944	52.21915356941865	0	0	0
257	1	1	-50.25195502398638	-10.695939535994519	52.64975529248254	0	0	0
258	1	1	-50.916795994112306	-10.017835499550383	52.336448094671525	0	0	0
259	1	1	-51.58163696423823	-9.407451488835463	52.76704981773541	0	0	0
260	1	1	-52.24647793436415	-8.729347452391327	52.4537426199244	0	0	0
261	1	1	-52.911318904490074	-8.118963441676406	52.884344342988285	0	0	0
262	1	1	-53.576159874615996	-7.4408594052322705	52.57103714517727	0	0	0
263	1	1	-54.24100084474192	-6.83047539451735	53.00163886824116	0	0	0
264	1	1	-54.90584181486784	-6.152371358073214	52.688331670430145	0	0	0
265	1	1	-55.570682784993764	-5.541987347358294	53.11893339349403	0	0	0
266	1	1	-56.23552375511969	-4.863883310914158	52.80562619568302	0	0	0
267	1	1	-56.90036472524561	-4.253499300199238	53.236227918746906	0	0	0
268	1	1	-57.56520569537153	-3.5753952637551016	52.92292072093589	0	0	0
269	1	1	-58.230046665497454	-2.965011253040181	53.35352244399978	0	0	0
270	1	1	-58.89488763562338	-2.286907216596045	53.040215246188765	0	0	0
271	1	1	-59.5597286057493	-1.6765232058811241	53.47081696925265	0	0	0
272	1	1	-60.22456957587522	-0.9984191694369883	53.15750977144164	0	0	0
273	1	1	-60.889410546001145	-0.3880351587220675	53.588111494505526	0	0	0
274	1	1	-61.55425151612707	0.29006887772206835	53.27480429669451	0	0	0
275	1	1	-62.21909248625299	0.9004528884369891	53.7054060197584	0	0	0
276	1	1	-62.88393345637891	1.5785569248811249	53.392098821947386	0	0	0
277	1	1	-63.548774426504835	2.1889409355960456	53.82270054501127	0	0	0
278	1	1	-64.21361539663076	2.8670449720401816	53.50939334720026	0	0	0
279	1	1	-64.87845636675668	3.4774289827551024	53.939995070264146	0	0	0
280	1	1	-65.5432973368826	4.155533019199238	53.62668787245313	0	0	0
281	1	1	-66.20813830700853	4.765917029914158	54.05728959551702	0	0	0
282	1	1	-66.87297927713445	5.444021066358294	53.743982397706006	0	0	0
283	1	1	-67.53782024726037	6.0544050770732145	54.17458412076989	0	0	0
284	1	1	-68.2026612173863	6.7325091135173505	53.86127692295888	0	0	0
285	1	1	-68.86750218751222	7.342893124232271	54.29187864602277	0	0	0
286	1	1	-69.53234315763814	8.020997160676407	53.97857144821175	0	0	0
287	1	1	-70.19718412776406	8.631381171391327	54.40917317127564	0	0	0
288	1	1	-70.86202509788998	9.309485207835463	54.095865973464626	0	0	0
289	1	1	-71.5268660680159	9.919869218550383	54.52646769652851	0	0	0
290	1	1	-72.19170703814183	10.59797325499452	54.2131604987175	0	0	0
291	1	1	-72.85654800826775	11.20835726570944	54.64376222178139	0	0	0
292	1	1	-73.52138897839367	11.886461302153576	54.33045502397037	0	0	0
293	1	1	-74.1862299485196	12.496845312868496	54.76105674703426	0	0	0
294	1	1	-74.85107091864552	13.174949349312632	54.447749549223246	0	0	0
295	1	1	-75.51591188877144	13.785333360027552	54.878351272287134	0	0	0
296	1	1	-76.18075285889736	14.463437396471688	54.56504407447612	0	0	0
297	1	1	-76.84559382902329	15.073821407186609	54.99564579754001	0	0	0
298	1	1	-77.51043479914921	15.751925443630745	54.68233859972899	0	0	0
299	1	1	-78.17527576927513	16.362309454345667	55.11294032279288	0	0	0
300	1	1	-78.84011673940105	17.040413490789803	54.79963312498187	0	0	0
301	1	1	-79.50495770952698	17.650797501504723	55.230234848045754	0	0	0
302	1	1	-46.364546998264856	-15.237040560057602	52.70283093877084	0	0	0
303	1	1	-46.46618479329887	-16.158163785294164	53.07859916860197	0	0	0
304	1	1	-46.56782258833289	-16.293300564943575	54.06419939658825	0	0	0
305	1	1	-46.6694603833669	-17.214423790180135	54.43996762641938	0	0	0
306	1	1	-46.77109817840092	-17.349560569829546	55.425567854405664	0	0	0
307	1	1	-46.872735973434935	-18.270683795066105	55.801336084236794	0	0	0
308	1	1	-46.97437376846895	-18.405820574715516	56.78693631222308	0	0	0
309	1	1	-47.076011563502966	-19.326943799952076	57.16270454205421	0	0	0
310	1	1	-47.17764935853698	-19.462080579601487	58.14830477004049	0	0	0
311	1	1	-47.279287153571	-20.383203804838047	58.52407299987162	0	0	0
312	1	1	-47.38092494860501	-20.518340584487458	59.5096732278579	0	0	0
313	1	1	-47.48256274363903	-21.439463809724018	59.88544145768903	0	0	0
314	1	1	-47.584200538673045	-21.57460058937343	60.871041685675316	0	0	0
315	1	1	-47.68583833370706	-22.49572381460999	61.24680991550645	0	0	0
316	1	1	-47.787476128741076	-22.6308605942594	62.23241014349273	0	0	0
317	1	1	-47.88911392377509	-23.55198381949596	62.60817837332386	0	0	0
318	1	1	-47.99075171880911	-23.68712059914537	63.59377860131014	0	0	0
319	1	1	-48.09238951384312	-24.60824382438193	63.96954683114127	0	0	0
320	1	1	-48.19402730887714	-24.74338060403134	64.95514705912755	0	0	0
321	1	1	-48.295665103911155	-25.6645038292679	65.33091528895868	0	0	0
322	1	1	-48.39730289894517	-25.79964060891731	66.31651551694496	0	0	0
323	1	1	-48.498940693979186	-26.72076383415387	66.69228374677608	0	0	0
324	1	1	-48.6005784890132	-26.855900613803282	67.67788397476237	0	0	0
325	1	1	-48.70221628404722	-27.777023839039842	68.05365220459349	0	0	0
326	1	1	-48.80385407908123	-27.912160618689253	69.03925243257977	0	0	0
327	1	1	-48.90549187411525	-28.833283843925813	69.4150206624109	0	0	0
328	1	1	-49.007129669149265	-28.968420623575224	70.40062089039718	0	0	0
329	1	1	-49.10876746418328	-29.889543848811783	70.7763891202283	0	0	0
330	1	1	-49.210405259217296	-30.024680628461194	71.76198934821458	0	0	0
331	1	1	-49.31204305425131	-30.945803853697754	72.13775757804571	0	0	0
332	1	1	-49.41368084928533	-31.080940633347165	73.12335780603199	0	0	0
333	1	1	-49.51531864431934	-32.002063858583725	73.49912603586311	0	0	0
334	1	1	-49.61695643935336	-32.13720063823314	74.4847262638494	0	0	0
335	1	1	-49.718594234387375	-33.0583238634697	74.86049449368052	0	0	0
336	1	1	-49.82023202942139	-33.19346064311912	75.8460947216668	0	0	0
337	1	1	-49.921869824455406	-34.11458386835568	76.22186295149793	0	0	0
338	1	1	-50.02350761948942	-34.249720648005095	77.20746317948421	0	0	0
339	1	1	-50.12514541452344	-35.17084387324166	77.58323140931533	0	0	0
340	1	1	-50.22678320955745	-35.30598065289107	78.56883163730161	0	0	0
341	1	1	-50.32842100459147	-36.227103878127636	78.94459986713274	0	0	0
342	1	1	-50.430058799625485	-36.36224065777705	79.93020009511902	0	0	0
343	1	1	-50.5316965946595	-37.283363883013614	80.30596832495014	0	0	0
344	1	1	-50.633334389693516	-37.41850066266303	81.29156855293643	0	0	0
345	1	1	-50.73497218472753	-38.33962388789959	81.66733678276755	0	0	0
346	1	1	-50.83660997976155	-38.474760667549006	82.65293701075383	0	0	0
347	1	1	-50.93824777479556	-39.39588389278557	83.02870524058496	0	0	0
348	1	1	-51.03988556982958	-39.531020672434984	84.01430546857124	0	0	0
349	1	1	-51.141523364863595	-40.45214389767155	84.39007369840236	0	0	0
350	1	1	-51.24316115989761	-40.58728067732096	85.37567392638864	0	0	0
351	1	1	-51.344798954931626	-41.508403902557525	85.75144215621977	0	0	0
352	1	1	-52.24547539020144	-41.86980472274893	85.51025466459834	0	0	0
353	1	1	-53.14615182547126	-42.0621932681725	85.12067975968343	0	0	0
354	1	1	-54.04682826074107	-42.49576930521751	85.09250567495992	0	0	0
355	1	1	-54.94750469601089	-42.688157850641076	84.70293077004501	0	0	0
356	1	1	-55.848181131280704	-43.121733887686084	84.67475668532151	0	0	0
357	1	1	-56.74885756655052	-43.31412243310965	84.2851817804066	0	0	0
358	1	1	-57.649534001820335	-43.74769847015466	84.2570076956831	0	0	0
359	1	1	-58.55021043709015	-43.94008701557823	83.86743279076819	0	0	0
360	1	1	-59.450886872359966	-44.373663052623236	83.83925870604469	0	0	0
361	1	1	-60.35156330762978	-44.566051598046805	83.44968380112978	0	0	0
362	1	1	-61.2522397428996	-44.99962763509181	83.42150971640628	0	0	0
363	1	1	-62.15291617816941	-45.19201618051538	83.03193481149137	0	0	0
364	1	1	-63.05359261343923	-45.62559221756039	83.00376072676787	0	0	0
365	1	1	-63.954269048709044	-45.81798076298396	82.61418582185296	0	0	0
366	1	1	-64.85494548397885	-46.251556800028965	82.58601173712945	0	0	0
367	1	1	-65.75562191924867	-46.44394534545253	82.19643683221454	0	0	0
368	1	1	-66.65629835451848	-46.87752138249754	82.16826274749104	0	0	0
369	1	1	-67.5569747897883	-47.06990992792111	81.77868784257613	0	0	0
370	1	1	-68.45765122505811	-47.50348596496612	81.75051375785263	0	0	0
371	1	1	-69.35832766032793	-47.695874510389686	81.36093885293772	0	0	0
372	1	1	-70.25900409559775	-48.12945054743469	81.33276476821422	0	0	0
373	1	1	-71.15968053086756	-48.32183909285826	80.94318986329931	0	0	0
374	1	1	-72.06035696613738	-48.75541512990327	80.9150157785758	0	0	0
375	1	1	-72.96103340140719	-48.94780367532684	80.5254408736609	0	0	0
376	1	1	-73.86170983667701	-49.381379712371846	80.4972667889374	0	0	0
377	1	1	-74.76238627194682	-49.573768257795415	80.10769188402249	0	0	0
378	1	1	-75.66306270721664	-50.00734429484042	80.07951779929898	0	0	0
379	1	1	-76.56373914248645	-50.19973284026399	79.68994289438407	0	0	0
380	1	1	-77.46441557775627	-50.633308877309	79.66176880966057	0	0	0
381	1	1	-78.36509201302609	-50.82569742273257	79.27219390474566	0	0	0
382	1	1	-79.2657684482959	-51.259273459777575	79.24401982002216	0	0	0
383	1	1	-80.16644488356572	-51.45166200520114	78.85444491510725	0	0	0
384	1	1	-81.06712131883553	-51.88523804224615	78.82627083038375	0	0	0
385	1	1	-81.96779775410535	-52.07762658766972	78.43669592546884	0	0	0
386	1	1	-82.86847418937516	-52.51120262471473	78.40852184074534	0	0	0
387	1	1	-83.76915062464498	-52.703591170138296	78.01894693583043	0	0	0
388	1	1	-84.6698270599148	-53.1371672071833	77.99077285110693	0	0	0
389	1	1	-85.57050349518461	-53.32955575260687	77.60119794619202	0	0	0
390	1	1	-86.47117993045443	-53.76313178965188	77.57302386146851	0	0	0
391	1	1	-87.37185636572424	-53.95552033507545	77.1834489565536	0	0	0
392	1	1	-88.27253280099406	-54.389096372120456	77.1552748718301	0	0	0
393	1	1	-89.17320923626387	-54.581484917544024	76.7656999669152	0	0	0
394	1	1	-90.07388567153369	-55.01506095458903	76.73752588219169	0	0	0
395	1	1	-90.9745621068035	-55.2074495000126	76.34795097727678	0	0	0
396	1	1	-91.87523854207332	-55.64102553705761	76.31977689255328	0	0	0
397	1	1	-92.77591497734313	-55.83341408248118	75.93020198763837	0	0	0
398	1	1	-93.67659141261295	-56.266990119526184	75.90202790291487	0	0	0
399	1	1	-94.57726784788277	-56.45937866494975	75.51245299799996	0	0	0
400	1	1	-95.47794428315258	-56.89295470199476	75.48427891327646	0	0	0
401	1	1	-96.3786207184224	-57.08534324741833	75.09470400836155	0	0	0
402	1	1	-51.25535977688947	-41.47458734703813	86.7468601960422	0	0	0
403	1	1	-51.165920598847315	-41.94301037080107	87.62582578367345	0	0	0
404	1	1	-51.07648142080516	-41.41601535474157	88.4709748157853	0	0	0
405	1	1	-50.987042242763	-41.884438378504505	89.34994040341654	0	0	0
406	1	1	-50.89760306472085	-41.357443362445004	90.19508943552839	0	0	0
407	1	1	-50.80816388667869	-41.82586638620794	91.07405502315963	0	0	0
408	1	1	-50.718724708636536	-41.29887137014844	91.91920405527148	0	0	0
409	1	1	-50.62928553059438	-41.76729439391138	92.79816964290272	0	0	0
410	1	1	-50.539846352552225	-41.240299377851876	93.64331867501457	0	0	0
411	1	1	-50.45040717451007	-41.708722401614814	94.52228426264581	0	0	0
412	1	1	-50.36096799646791	-41.18172738555531	95.36743329475766	0	0	0
413	1	1	-50.27152881842576	-41.65015040931825	96.2463988823889	0	0	0
414	1	1	-50.1820896403836	-41.12315539325875	97.09154791450075	0	0	0
415	1	1	-50.092650462341446	-41.59157841702169	97.970513502132	0	0	0
416	1	1	-50.00321128429929	-41.064583400962185	98.81566253424384	0	0	0
417	1	1	-49.913772106257134	-41.53300642472512	99.69462812187508	0	0	0
418	1	1	-49.82433292821498	-41.00601140866562	100.53977715398693	0	0	0
419	1	1	-49.73489375017282	-41.47443443242856	101.41874274161817	0	0	0
420	1	1	-49.64545457213067	-40.94743941636906	102.26389177373002	0	0	0
421	1	1	-49.55601539408851	-41.415862440131995	103.14285736136127	0	0	0
422	1	1	-49.466576216046356	-40.888867424072494	103.98800639347311	0	0	0
423	1	1	-49.3771370380042	-41.35729044783543	104.86697198110436	0	0	0
424	1	1	-49.287697859962044	-40.83029543177593	105.7121210132162	0	0	0
425	1	1	-49.19825868191989	-41.29871845553887	106.59108660084745	0	0	0
426	1	1	-49.10881950387773	-40.771723439479366	107.4362356329593	0	0	0
427	1	1	-49.01938032583558	-41.240146463242304	108.31520122059054	0	0	0
428	1	1	-48.92994114779342	-40.7131514471828	109.16035025270239	0	0	0
429	1	1	-48.840501969751266	-41.18157447094574	110.03931584033363	0	0	0
430	1	1	-48.75106279170911	-40.65457945488624	110.88446487244548	0	0	0
431	1	1	-48.661623613666954	-41.12300247864918	111.76343046007672	0	0	0
432	1	1	-48.5721844356248	-40.596007462589675	112.60857949218857	0	0	0
433	1	1	-48.48274525758264	-41.06443048635261	113.48754507981981	0	0	0
434	1	1	-48.39330607954049	-40.53743547029311	114.33269411193166	0	0	0
435	1	1	-48.30386690149833	-41.00585849405605	115.2116596995629	0	0	0
436	1	1	-48.214427723456176	-40.47886347799655	116.05680873167475	0	0	0
437	1	1	-48.12498854541402	-40.947286501759486	116.93577431930599	0	0	0
438	1	1	-48.035549367371864	-40.420291485699984	117.78092335141784	0	0	0
439	1	1	-47.94611018932971	-40.88871450946292	118.65988893904908	0	0	0
440	1	1	-47.85667101128755	-40.36171949340342	119.50503797116093	0	0	0