bb375nuc5bl62bn4d30tot1000V2

993 atoms
992 bonds
1006 angles

1 atom types
1 bond types
1 angle types

-1000 1000 xlo xhi
-1000 1000 ylo yhi
-1000 1000 zlo zhi

Masses

1 1

Atoms

1	1	1	0.0	0.0	0.0	0	0	0
2	1	1	0.0	0.0	1.0	0	0	0
3	1	1	0.0	-0.49999999999999994	1.8660254037844388	0	0	0
4	1	1	0.0	0.0	2.7320508075688776	0	0	0
5	1	1	0.0	-0.49999999999999994	3.5980762113533165	0	0	0
6	1	1	0.0	0.0	4.464101615137755	0	0	0
7	1	1	0.0	-0.49999999999999994	5.330127018922194	0	0	0
8	1	1	0.0	0.0	6.196152422706632	0	0	0
9	1	1	0.0	-0.49999999999999994	7.06217782649107	0	0	0
10	1	1	0.0	0.0	7.928203230275509	0	0	0
11	1	1	0.0	-0.49999999999999994	8.794228634059948	0	0	0
12	1	1	0.0	0.0	9.660254037844387	0	0	0
13	1	1	0.0	-0.49999999999999994	10.526279441628827	0	0	0
14	1	1	0.0	0.0	11.392304845413266	0	0	0
15	1	1	0.0	-0.49999999999999994	12.258330249197705	0	0	0
16	1	1	0.0	0.0	13.124355652982144	0	0	0
17	1	1	0.0	-0.49999999999999994	13.990381056766584	0	0	0
18	1	1	0.0	0.0	14.856406460551023	0	0	0
19	1	1	0.0	-0.49999999999999994	15.722431864335462	0	0	0
20	1	1	0.0	0.0	16.5884572681199	0	0	0
21	1	1	0.0	-0.49999999999999994	17.454482671904337	0	0	0
22	1	1	0.0	0.0	18.320508075688775	0	0	0
23	1	1	0.0	-0.49999999999999994	19.186533479473212	0	0	0
24	1	1	0.0	0.0	20.05255888325765	0	0	0
25	1	1	0.0	-0.49999999999999994	20.918584287042087	0	0	0
26	1	1	0.0	0.0	21.784609690826525	0	0	0
27	1	1	0.0	-0.49999999999999994	22.650635094610962	0	0	0
28	1	1	0.0	0.0	23.5166604983954	0	0	0
29	1	1	0.0	-0.49999999999999994	24.382685902179837	0	0	0
30	1	1	0.0	0.0	25.248711305964274	0	0	0
31	1	1	0.0	-0.49999999999999994	26.114736709748712	0	0	0
32	1	1	0.0	0.0	26.98076211353315	0	0	0
33	1	1	0.0	-0.49999999999999994	27.846787517317587	0	0	0
34	1	1	0.0	0.0	28.712812921102024	0	0	0
35	1	1	0.0	-0.49999999999999994	29.578838324886462	0	0	0
36	1	1	0.0	0.0	30.4448637286709	0	0	0
37	1	1	0.0	-0.49999999999999994	31.310889132455337	0	0	0
38	1	1	0.0	0.0	32.17691453623978	0	0	0
39	1	1	0.0	-0.49999999999999994	33.04293994002422	0	0	0
40	1	1	0.0	0.0	33.90896534380866	0	0	0
41	1	1	0.0	-0.49999999999999994	34.7749907475931	0	0	0
42	1	1	0.0	0.0	35.64101615137754	0	0	0
43	1	1	0.0	-0.49999999999999994	36.50704155516198	0	0	0
44	1	1	0.0	0.0	37.373066958946424	0	0	0
45	1	1	0.0	-0.49999999999999994	38.239092362730865	0	0	0
46	1	1	0.0	0.0	39.105117766515306	0	0	0
47	1	1	0.0	-0.49999999999999994	39.97114317029975	0	0	0
48	1	1	0.0	0.0	40.83716857408419	0	0	0
49	1	1	0.0	-0.49999999999999994	41.70319397786863	0	0	0
50	1	1	0.0	0.0	42.56921938165307	0	0	0
51	1	1	0.0	-0.49999999999999994	43.43524478543751	0	0	0
52	1	1	0.0	0.0	44.30127018922195	0	0	0
53	1	1	0.0	-0.49999999999999994	45.16729559300639	0	0	0
54	1	1	0.0	0.0	46.033320996790835	0	0	0
55	1	1	0.0	-0.49999999999999994	46.899346400575276	0	0	0
56	1	1	0.0	0.0	47.76537180435972	0	0	0
57	1	1	0.0	-0.49999999999999994	48.63139720814416	0	0	0
58	1	1	0.0	0.0	49.4974226119286	0	0	0
59	1	1	0.0	-0.49999999999999994	50.36344801571304	0	0	0
60	1	1	0.0	0.0	51.22947341949748	0	0	0
61	1	1	0.0	-0.49999999999999994	52.09549882328192	0	0	0
62	1	1	0.0	0.0	52.96152422706636	0	0	0
63	1	1	0.0	-0.49999999999999994	53.827549630850804	0	0	0
64	1	1	-0.12636116508474005	0.14208011626967215	54.58370171889233	0	0	0
65	1	1	-0.25272233016947987	0.32006176420331234	55.55958869439577	0	0	0
66	1	1	-0.3790834952542197	1.2541955001784741	55.89339555362954	0	0	0
67	1	1	-0.5054446603389595	1.4321771481121144	56.86928252913298	0	0	0
68	1	1	-0.6318058254236993	2.366310884087276	57.20308938836675	0	0	0
69	1	1	-0.7581669905084392	2.544292532020916	58.17897636387019	0	0	0
70	1	1	-0.884528155593179	3.478426267996078	58.51278322310396	0	0	0
71	1	1	-1.0108893206779188	3.656407915929718	59.4886701986074	0	0	0
72	1	1	-1.1372504857626586	4.59054165190488	59.82247705784117	0	0	0
73	1	1	-1.2636116508473985	4.76852329983852	60.79836403334461	0	0	0
74	1	1	-1.3899728159321383	5.702657035813682	61.13217089257838	0	0	0
75	1	1	-1.516333981016878	5.880638683747322	62.10805786808182	0	0	0
76	1	1	-1.642695146101618	6.814772419722484	62.44186472731559	0	0	0
77	1	1	-1.7690563111863578	6.992754067656124	63.41775170281903	0	0	0
78	1	1	-1.8954174762710976	7.926887803631286	63.7515585620528	0	0	0
79	1	1	-2.021778641355837	8.104869451564927	64.72744553755624	0	0	0
80	1	1	-2.148139806440577	9.03900318754009	65.06125239679001	0	0	0
81	1	1	-2.274500971525317	9.21698483547373	66.03713937229345	0	0	0
82	1	1	-2.4008621366100567	10.15111857144889	66.37094623152723	0	0	0
83	1	1	-2.5272233016947965	10.32910021938253	67.34683320703067	0	0	0
84	1	1	-2.6535844667795363	11.263233955357691	67.68064006626444	0	0	0
85	1	1	-2.779945631864276	11.441215603291331	68.65652704176789	0	0	0
86	1	1	-2.906306796949016	12.375349339266492	68.99033390100166	0	0	0
87	1	1	-3.0326679620337558	12.553330987200132	69.9662208765051	0	0	0
88	1	1	-3.1590291271184956	13.487464723175293	70.30002773573888	0	0	0
89	1	1	-3.2853902922032354	13.665446371108933	71.27591471124232	0	0	0
90	1	1	-3.4117514572879752	14.599580107084094	71.6097215704761	0	0	0
91	1	1	-3.538112622372715	14.777561755017734	72.58560854597954	0	0	0
92	1	1	-3.664473787457455	15.711695490992895	72.91941540521331	0	0	0
93	1	1	-3.7908349525421947	15.889677138926535	73.89530238071676	0	0	0
94	1	1	-3.9171961176269345	16.823810874901696	74.22910923995053	0	0	0
95	1	1	-4.043557282711674	17.001792522835338	75.20499621545397	0	0	0
96	1	1	-4.169918447796414	17.9359262588105	75.53880307468775	0	0	0
97	1	1	-4.296279612881154	18.113907906744142	76.51469005019119	0	0	0
98	1	1	-4.422640777965894	19.048041642719305	76.84849690942497	0	0	0
99	1	1	-4.549001943050634	19.226023290652947	77.82438388492841	0	0	0
100	1	1	-4.6753631081353735	20.16015702662811	78.15819074416218	0	0	0
101	1	1	-4.801724273220113	20.33813867456175	79.13407771966563	0	0	0
102	1	1	-4.928085438304853	21.272272410536914	79.4678845788994	0	0	0
103	1	1	-5.054446603389593	21.450254058470556	80.44377155440284	0	0	0
104	1	1	-5.180807768474333	22.38438779444572	80.77757841363662	0	0	0
105	1	1	-5.307168933559073	22.56236944237936	81.75346538914006	0	0	0
106	1	1	-5.433530098643812	23.496503178354523	82.08727224837384	0	0	0
107	1	1	-5.559891263728552	23.674484826288165	83.06315922387728	0	0	0
108	1	1	-5.686252428813292	24.608618562263327	83.39696608311105	0	0	0
109	1	1	-5.812613593898032	24.78660021019697	84.3728530586145	0	0	0
110	1	1	-5.938974758982772	25.720733946172132	84.70665991784827	0	0	0
111	1	1	-6.0653359240675115	25.898715594105774	85.68254689335171	0	0	0
112	1	1	-6.191697089152251	26.832849330080936	86.01635375258549	0	0	0
113	1	1	-6.318058254236991	27.010830978014578	86.99224072808893	0	0	0
114	1	1	-6.444419419321731	27.94496471398974	87.3260475873227	0	0	0
115	1	1	-6.570780584406471	28.122946361923383	88.30193456282615	0	0	0
116	1	1	-6.697141749491211	29.057080097898545	88.63574142205992	0	0	0
117	1	1	-6.8235029145759505	29.235061745832187	89.61162839756336	0	0	0
118	1	1	-6.94986407966069	30.16919548180735	89.94543525679714	0	0	0
119	1	1	-7.07622524474543	30.34717712974099	90.92132223230058	0	0	0
120	1	1	-7.20258640983017	31.281310865716154	91.25512909153436	0	0	0
121	1	1	-7.32894757491491	31.459292513649796	92.2310160670378	0	0	0
122	1	1	-7.45530873999965	32.39342624962496	92.56482292627157	0	0	0
123	1	1	-7.581669905084389	32.5714078975586	93.54070990177502	0	0	0
124	1	1	-7.708031070169129	33.50554163353376	93.87451676100879	0	0	0
125	1	1	-7.834392235253869	33.6835232814674	94.85040373651223	0	0	0
126	1	1	0.8721641284289254	-0.9766243287466123	53.937817406418546	0	0	0
127	1	1	1.744328256857849	-1.4445269932867546	53.794999936905704	0	0	0
128	1	1	2.6164923852867727	-1.8021618822591547	54.12880679613948	0	0	0
129	1	1	3.4886565137156964	-2.270064546799297	53.98598932662664	0	0	0
130	1	1	4.3608206421446205	-2.627699435771697	54.31979618586041	0	0	0
131	1	1	5.232984770573545	-3.0956021003118397	54.17697871634757	0	0	0
132	1	1	6.105148899002469	-3.45323698928424	54.510785575581345	0	0	0
133	1	1	6.977313027431393	-3.9211396538243823	54.3679681060685	0	0	0
134	1	1	7.849477155860317	-4.278774542796782	54.70177496530228	0	0	0
135	1	1	8.721641284289241	-4.7466772073369246	54.558957495789436	0	0	0
136	1	1	9.593805412718165	-5.104312096309324	54.89276435502321	0	0	0
137	1	1	10.46596954114709	-5.572214760849467	54.74994688551037	0	0	0
138	1	1	11.338133669576013	-5.9298496498218665	55.08375374474414	0	0	0
139	1	1	12.210297798004937	-6.397752314362009	54.9409362752313	0	0	0
140	1	1	13.082461926433862	-6.755387203334409	55.274743134465076	0	0	0
141	1	1	13.954626054862786	-7.223289867874551	55.131925664952234	0	0	0
142	1	1	14.82679018329171	-7.580924756846951	55.46573252418601	0	0	0
143	1	1	15.698954311720634	-8.048827421387093	55.32291505467317	0	0	0
144	1	1	16.571118440149558	-8.406462310359494	55.65672191390694	0	0	0
145	1	1	17.443282568578482	-8.874364974899636	55.5139044443941	0	0	0
146	1	1	18.315446697007406	-9.231999863872037	55.847711303627875	0	0	0
147	1	1	19.18761082543633	-9.69990252841218	55.70489383411503	0	0	0
148	1	1	20.059774953865254	-10.05753741738458	56.03870069334881	0	0	0
149	1	1	20.93193908229418	-10.525440081924723	55.895883223835966	0	0	0
150	1	1	21.804103210723103	-10.883074970897123	56.22969008306974	0	0	0
151	1	1	22.676267339152027	-11.350977635437266	56.0868726135569	0	0	0
152	1	1	23.54843146758095	-11.708612524409666	56.420679472790674	0	0	0
153	1	1	24.420595596009875	-12.176515188949809	56.27786200327783	0	0	0
154	1	1	25.2927597244388	-12.53415007792221	56.61166886251161	0	0	0
155	1	1	26.164923852867723	-13.002052742462352	56.468851392998765	0	0	0
156	1	1	27.037087981296647	-13.359687631434753	56.80265825223254	0	0	0
157	1	1	27.90925210972557	-13.827590295974895	56.6598407827197	0	0	0
158	1	1	28.781416238154495	-14.185225184947296	56.99364764195347	0	0	0
159	1	1	29.65358036658342	-14.653127849487438	56.85083017244063	0	0	0
160	1	1	30.525744495012344	-15.010762738459839	57.184637031674406	0	0	0
161	1	1	31.397908623441268	-15.478665402999981	57.041819562161564	0	0	0
162	1	1	32.27007275187019	-15.836300291972382	57.37562642139534	0	0	0
163	1	1	33.14223688029911	-16.304202956512523	57.2328089518825	0	0	0
164	1	1	34.01440100872803	-16.66183784548492	57.56661581111627	0	0	0
165	1	1	34.88656513715695	-17.129740510025062	57.42379834160343	0	0	0
166	1	1	35.75872926558587	-17.48737539899746	57.757605200837205	0	0	0
167	1	1	36.63089339401479	-17.9552780635376	57.61478773132436	0	0	0
168	1	1	37.50305752244371	-18.31291295251	57.94859459055814	0	0	0
169	1	1	38.37522165087263	-18.78081561705014	57.805777121045296	0	0	0
170	1	1	39.24738577930155	-19.13845050602254	58.13958398027907	0	0	0
171	1	1	40.11954990773047	-19.60635317056268	57.99676651076623	0	0	0
172	1	1	40.991714036159394	-19.96398805953508	58.33057337	0	0	0
173	1	1	41.863878164588314	-20.43189072407522	58.18775590048716	0	0	0
174	1	1	42.736042293017235	-20.78952561304762	58.521562759720936	0	0	0
175	1	1	43.608206421446155	-21.25742827758776	58.378745290208094	0	0	0
176	1	1	44.480370549875076	-21.61506316656016	58.71255214944187	0	0	0
177	1	1	45.352534678303996	-22.0829658311003	58.56973467992903	0	0	0
178	1	1	46.22469880673292	-22.4406007200727	58.9035415391628	0	0	0
179	1	1	47.09686293516184	-22.90850338461284	58.76072406964996	0	0	0
180	1	1	47.96902706359076	-23.266138273585238	59.094530928883735	0	0	0
181	1	1	48.84119119201968	-23.73404093812538	58.95171345937089	0	0	0
182	1	1	49.7133553204486	-24.091675827097777	59.28552031860467	0	0	0
183	1	1	50.58551944887752	-24.559578491637918	59.142702849091826	0	0	0
184	1	1	51.45768357730644	-24.917213380610317	59.4765097083256	0	0	0
185	1	1	52.32984770573536	-25.385116045150458	59.33369223881276	0	0	0
186	1	1	53.20201183416428	-25.742750934122856	59.667499098046534	0	0	0
187	1	1	54.0741759625932	-26.210653598662997	59.52468162853369	0	0	0
188	1	1	-0.7458029633441916	-1.1661660763737138	53.82838542740337	0	0	0
189	1	1	-1.4916059266883819	-1.7435007199290355	53.49602621026343	0	0	0
190	1	1	-2.2374088900325724	-2.3199995669317937	53.829833069497205	0	0	0
191	1	1	-2.983211853376763	-2.897334210487115	53.49747385235727	0	0	0
192	1	1	-3.7290148167209534	-3.4738330574898733	53.83128071159104	0	0	0
193	1	1	-4.474817780065144	-4.051167701045195	53.4989214944511	0	0	0
194	1	1	-5.220620743409334	-4.627666548047952	53.83272835368488	0	0	0
195	1	1	-5.966423706753525	-5.205001191603274	53.50036913654494	0	0	0
196	1	1	-6.712226670097715	-5.781500038606032	53.834175995778715	0	0	0
197	1	1	-7.458029633441906	-6.358834682161353	53.501816778638776	0	0	0
198	1	1	-8.203832596786096	-6.935333529164111	53.83562363787255	0	0	0
199	1	1	-8.949635560130286	-7.512668172719432	53.50326442073261	0	0	0
200	1	1	-9.695438523474476	-8.08916701972219	53.83707127996639	0	0	0
201	1	1	-10.441241486818665	-8.666501663277511	53.50471206282645	0	0	0
202	1	1	-11.187044450162855	-9.24300051028027	53.838518922060224	0	0	0
203	1	1	-11.932847413507044	-9.820335153835591	53.506159704920286	0	0	0
204	1	1	-12.678650376851234	-10.39683400083835	53.83996656415406	0	0	0
205	1	1	-13.424453340195424	-10.974168644393671	53.50760734701412	0	0	0
206	1	1	-14.170256303539613	-11.55066749139643	53.8414142062479	0	0	0
207	1	1	-14.916059266883803	-12.128002134951752	53.50905498910796	0	0	0
208	1	1	-15.661862230227992	-12.70450098195451	53.842861848341734	0	0	0
209	1	1	-16.407665193572182	-13.281835625509832	53.510502631201796	0	0	0
210	1	1	-17.15346815691637	-13.85833447251259	53.84430949043557	0	0	0
211	1	1	-17.89927112026056	-14.435669116067912	53.51195027329563	0	0	0
212	1	1	-18.64507408360475	-15.01216796307067	53.84575713252941	0	0	0
213	1	1	-19.39087704694894	-15.589502606625992	53.51339791538947	0	0	0
214	1	1	-20.13668001029313	-16.16600145362875	53.84720477462324	0	0	0
215	1	1	-20.88248297363732	-16.74333609718407	53.514845557483305	0	0	0
216	1	1	-21.62828593698151	-17.319834944186827	53.84865241671708	0	0	0
217	1	1	-22.3740889003257	-17.897169587742148	53.51629319957714	0	0	0
218	1	1	-23.11989186366989	-18.473668434744905	53.850100058810916	0	0	0
219	1	1	-23.865694827014078	-19.051003078300226	53.51774084167098	0	0	0
220	1	1	-24.611497790358268	-19.627501925302983	53.85154770090475	0	0	0
221	1	1	-25.357300753702457	-20.204836568858305	53.519188483764815	0	0	0
222	1	1	-26.103103717046647	-20.78133541586106	53.85299534299859	0	0	0
223	1	1	-26.848906680390836	-21.358670059416383	53.52063612585865	0	0	0
224	1	1	-27.594709643735026	-21.93516890641914	53.854442985092426	0	0	0
225	1	1	-28.340512607079216	-22.51250354997446	53.52208376795249	0	0	0
226	1	1	-29.086315570423405	-23.089002396977218	53.85589062718626	0	0	0
227	1	1	-29.832118533767595	-23.66633704053254	53.523531410046324	0	0	0
228	1	1	-30.577921497111785	-24.242835887535296	53.8573382692801	0	0	0
229	1	1	-31.323724460455974	-24.820170531090618	53.52497905214016	0	0	0
230	1	1	-32.06952742380017	-25.396669378093375	53.858785911373936	0	0	0
231	1	1	-32.81533038714436	-25.974004021648696	53.526426694234	0	0	0
232	1	1	-33.56113335048855	-26.550502868651453	53.86023355346777	0	0	0
233	1	1	-34.306936313832736	-27.127837512206774	53.527874336327834	0	0	0
234	1	1	-35.052739277176926	-27.70433635920953	53.86168119556161	0	0	0
235	1	1	-35.798542240521115	-28.281671002764853	53.52932197842167	0	0	0
236	1	1	-36.544345203865305	-28.85816984976761	53.863128837655445	0	0	0
237	1	1	-37.290148167209495	-29.43550449332293	53.53076962051551	0	0	0
238	1	1	-38.035951130553684	-30.012003340325688	53.86457647974928	0	0	0
239	1	1	-38.781754093897874	-30.58933798388101	53.53221726260934	0	0	0
240	1	1	-39.52755705724206	-31.165836830883766	53.86602412184312	0	0	0
241	1	1	-40.27336002058625	-31.743171474439087	53.53366490470318	0	0	0
242	1	1	-41.01916298393044	-32.31967032144185	53.867471763936955	0	0	0
243	1	1	-41.76496594727463	-32.89700496499717	53.535112546797016	0	0	0
244	1	1	-42.51076891061882	-33.47350381199993	53.86891940603079	0	0	0
245	1	1	-43.25657187396301	-34.05083845555526	53.53656018889085	0	0	0
246	1	1	-44.0023748373072	-34.62733730255802	53.87036704812463	0	0	0
247	1	1	-44.74817780065139	-35.20467194611334	53.53800783098469	0	0	0
248	1	1	-45.49398076399558	-35.781170793116104	53.871814690218464	0	0	0
249	1	1	-46.23978372733977	-36.35850543667143	53.539455473078526	0	0	0
250	1	1	-46.017958222825094	-37.31923100840497	53.70618825738943	0	0	0
251	1	1	-45.79613271831042	-38.234610151747	53.37022029837961	0	0	0
252	1	1	-45.57430721379574	-38.983256510778126	53.994977911103334	0	0	0
253	1	1	-45.352481709281065	-39.898635654120156	53.65900995209351	0	0	0
254	1	1	-45.13065620476639	-40.64728201315128	54.28376756481724	0	0	0
255	1	1	-44.90883070025171	-41.56266115649331	53.94779960580742	0	0	0
256	1	1	-44.687005195737036	-42.31130751552444	54.572557218531145	0	0	0
257	1	1	-44.46517969122236	-43.22668665886647	54.236589259521324	0	0	0
258	1	1	-44.243354186707684	-43.9753330178976	54.86134687224505	0	0	0
259	1	1	-44.02152868219301	-44.89071216123963	54.52537891323523	0	0	0
260	1	1	-43.79970317767833	-45.639358520270754	55.150136525958956	0	0	0
261	1	1	-43.577877673163655	-46.554737663612784	54.814168566949135	0	0	0
262	1	1	-43.35605216864898	-47.30338402264391	55.43892617967286	0	0	0
263	1	1	-43.1342266641343	-48.21876316598594	55.10295822066304	0	0	0
264	1	1	-42.91240115961963	-48.96740952501707	55.72771583338677	0	0	0
265	1	1	-42.69057565510495	-49.8827886683591	55.39174787437695	0	0	0
266	1	1	-42.468750150590274	-50.631435027390225	56.01650548710067	0	0	0
267	1	1	-42.2469246460756	-51.546814170732254	55.68053752809085	0	0	0
268	1	1	-42.02509914156092	-52.29546052976338	56.30529514081458	0	0	0
269	1	1	-41.803273637046246	-53.21083967310541	55.96932718180476	0	0	0
270	1	1	-41.58144813253157	-53.95948603213654	56.594084794528484	0	0	0
271	1	1	-41.35962262801689	-54.87486517547857	56.25811683551866	0	0	0
272	1	1	-41.13779712350222	-55.623511534509696	56.88287444824239	0	0	0
273	1	1	-40.91597161898754	-56.538890677851725	56.54690648923257	0	0	0
274	1	1	-40.694146114472865	-57.28753703688285	57.171664101956296	0	0	0
275	1	1	-40.47232060995819	-58.20291618022488	56.835696142946475	0	0	0
276	1	1	-40.25049510544351	-58.95156253925601	57.4604537556702	0	0	0
277	1	1	-40.028669600928836	-59.86694168259804	57.12448579666038	0	0	0
278	1	1	-39.80684409641416	-60.61558804162917	57.74924340938411	0	0	0
279	1	1	-39.585018591899484	-61.530967184971196	57.413275450374286	0	0	0
280	1	1	-39.36319308738481	-62.27961354400232	58.03803306309801	0	0	0
281	1	1	-39.14136758287013	-63.19499268734435	57.70206510408819	0	0	0
282	1	1	-38.919542078355455	-63.94363904637548	58.32682271681192	0	0	0
283	1	1	-38.69771657384078	-64.8590181897175	57.9908547578021	0	0	0
284	1	1	-38.4758910693261	-65.60766454874863	58.615612370525824	0	0	0
285	1	1	-38.25406556481143	-66.52304369209065	58.279644411516	0	0	0
286	1	1	-38.03224006029675	-67.27169005112178	58.90440202423973	0	0	0
287	1	1	-37.810414555782074	-68.1870691944638	58.56843406522991	0	0	0
288	1	1	-37.5885890512674	-68.93571555349493	59.193191677953635	0	0	0
289	1	1	-37.36676354675272	-69.85109469683695	58.857223718943814	0	0	0
290	1	1	-37.144938042238046	-70.59974105586808	59.48198133166754	0	0	0
291	1	1	-36.92311253772337	-71.5151201992101	59.14601337265772	0	0	0
292	1	1	-36.70128703320869	-72.26376655824123	59.770770985381446	0	0	0
293	1	1	-36.47946152869402	-73.17914570158325	59.434803026371625	0	0	0
294	1	1	-36.25763602417934	-73.92779206061438	60.05956063909535	0	0	0
295	1	1	-36.035810519664665	-74.8431712039564	59.72359268008553	0	0	0
296	1	1	-35.81398501514999	-75.59181756298753	60.34835029280926	0	0	0
297	1	1	-35.59215951063531	-76.50719670632955	60.01238233379944	0	0	0
298	1	1	-35.370334006120636	-77.25584306536068	60.63713994652316	0	0	0
299	1	1	-35.14850850160596	-78.1712222087027	60.30117198751334	0	0	0
300	1	1	-34.926682997091284	-78.91986856773383	60.92592960023707	0	0	0
301	1	1	-34.70485749257661	-79.83524771107585	60.58996164122725	0	0	0
302	1	1	-34.48303198806193	-80.58389407010698	61.214719253950975	0	0	0
303	1	1	-34.261206483547255	-81.499273213449	60.878751294941154	0	0	0
304	1	1	-34.03938097903258	-82.24791957248013	61.50350890766488	0	0	0
305	1	1	-33.8175554745179	-83.16329871582215	61.16754094865506	0	0	0
306	1	1	-33.59572997000323	-83.91194507485328	61.792298561378786	0	0	0
307	1	1	-33.37390446548855	-84.8273242181953	61.456330602368965	0	0	0
308	1	1	-33.152078960973874	-85.57597057722643	62.08108821509269	0	0	0
309	1	1	-32.9302534564592	-86.49134972056845	61.74512025608287	0	0	0
310	1	1	-32.70842795194452	-87.23999607959958	62.3698778688066	0	0	0
311	1	1	-32.486602447429846	-88.1553752229416	62.033909909796776	0	0	0
312	1	1	-46.364236454269346	-36.21106176340594	52.55824607546058	0	0	0
313	1	1	-46.48868918119892	-35.59276709792175	51.78221564732416	0	0	0
314	1	1	-46.6131419081285	-35.95568183005551	50.85874154592224	0	0	0
315	1	1	-46.73759463505807	-35.337387164571325	50.08271111778582	0	0	0
316	1	1	-46.86204736198765	-35.700301896705085	49.159237016383905	0	0	0
317	1	1	-46.986500088917225	-35.0820072312209	48.38320658824748	0	0	0
318	1	1	-47.1109528158468	-35.44492196335466	47.45973248684557	0	0	0
319	1	1	-47.23540554277638	-34.82662729787047	46.683702058709144	0	0	0
320	1	1	-47.35985826970595	-35.18954203000423	45.76022795730723	0	0	0
321	1	1	-47.48431099663553	-34.57124736452005	44.98419752917081	0	0	0
322	1	1	-47.608763723565104	-34.93416209665381	44.06072342776889	0	0	0
323	1	1	-47.73321645049468	-34.31586743116962	43.28469299963247	0	0	0
324	1	1	-47.857669177424256	-34.67878216330338	42.361218898230554	0	0	0
325	1	1	-47.98212190435383	-34.060487497819196	41.58518847009413	0	0	0
326	1	1	-48.10657463128341	-34.423402229952956	40.661714368692216	0	0	0
327	1	1	-48.231027358212984	-33.80510756446877	39.88568394055579	0	0	0
328	1	1	-48.35548008514256	-34.16802229660253	38.96220983915388	0	0	0
329	1	1	-48.479932812072136	-33.549727631118344	38.186179411017456	0	0	0
330	1	1	-48.60438553900171	-33.912642363252104	37.26270530961554	0	0	0
331	1	1	-48.72883826593129	-33.29434769776792	36.48667488147912	0	0	0
332	1	1	-48.85329099286086	-33.65726242990168	35.5632007800772	0	0	0
333	1	1	-48.97774371979044	-33.03896776441749	34.78717035194078	0	0	0
334	1	1	-49.102196446720015	-33.40188249655125	33.863696250538865	0	0	0
335	1	1	-49.22664917364959	-32.78358783106707	33.08766582240244	0	0	0
336	1	1	-49.35110190057917	-33.146502563200826	32.16419172100053	0	0	0
337	1	1	-49.47555462750874	-32.52820789771664	31.38816129286411	0	0	0
338	1	1	-49.60000735443832	-32.8911226298504	30.464687191462193	0	0	0
339	1	1	-49.724460081367894	-32.272827964366215	29.688656763325774	0	0	0
340	1	1	-49.84891280829747	-32.635742696499975	28.76518266192386	0	0	0
341	1	1	-49.973365535227046	-32.01744803101579	27.98915223378744	0	0	0
342	1	1	-50.09781826215662	-32.38036276314955	27.065678132385525	0	0	0
343	1	1	-50.2222709890862	-31.762068097665367	26.289647704249106	0	0	0
344	1	1	-50.346723716015774	-32.12498282979913	25.36617360284719	0	0	0
345	1	1	-50.47117644294535	-31.506688164314948	24.59014317471077	0	0	0
346	1	1	-50.595629169874925	-31.86960289644871	23.666669073308856	0	0	0
347	1	1	-50.7200818968045	-31.25130823096453	22.890638645172437	0	0	0
348	1	1	-50.84453462373408	-31.614222963098292	21.967164543770522	0	0	0
349	1	1	-50.96898735066365	-30.99592829761411	21.191134115634103	0	0	0
350	1	1	-51.09344007759323	-31.358843029747874	20.267660014232188	0	0	0
351	1	1	-51.217892804522805	-30.74054836426369	19.49162958609577	0	0	0
352	1	1	-51.34234553145238	-31.103463096397455	18.568155484693854	0	0	0
353	1	1	-51.46679825838196	-30.485168430913273	17.792125056557435	0	0	0
354	1	1	-51.59125098531153	-30.848083163047036	16.86865095515552	0	0	0
355	1	1	-51.71570371224111	-30.229788497562854	16.0926205270191	0	0	0
356	1	1	-51.840156439170684	-30.592703229696617	15.169146425617187	0	0	0
357	1	1	-51.96460916610026	-29.974408564212435	14.393115997480768	0	0	0
358	1	1	-52.089061893029836	-30.3373232963462	13.469641896078855	0	0	0
359	1	1	-52.21351461995941	-29.719028630862017	12.693611467942436	0	0	0
360	1	1	-52.33796734688899	-30.08194336299578	11.770137366540522	0	0	0
361	1	1	-52.46242007381856	-29.463648697511598	10.994106938404103	0	0	0
362	1	1	-52.58687280074814	-29.82656342964536	10.07063283700219	0	0	0
363	1	1	-52.711325527677715	-29.20826876416118	9.29460240886577	0	0	0
364	1	1	-52.83577825460729	-29.571183496294942	8.371128307463858	0	0	0
365	1	1	-52.96023098153687	-28.95288883081076	7.595097879327438	0	0	0
366	1	1	-53.08468370846644	-29.315803562944524	6.671623777925524	0	0	0
367	1	1	-53.20913643539602	-28.69750889746034	5.895593349789104	0	0	0
368	1	1	-53.333589162325595	-29.060423629594105	4.97211924838719	0	0	0
369	1	1	-53.45804188925517	-28.442128964109923	4.19608882025077	0	0	0
370	1	1	-53.582494616184746	-28.805043696243686	3.272614718848856	0	0	0
371	1	1	-53.70694734311432	-28.186749030759504	2.4965842907124363	0	0	0
372	1	1	-53.8314000700439	-28.549663762893267	1.5731101893105224	0	0	0
373	1	1	-53.955852796973474	-27.931369097409085	0.7970797611741027	0	0	0
374	1	1	-47.08401893932836	-36.12337833047953	54.02110072715294	0	0	0
375	1	1	-47.92825415131695	-36.16057491043624	54.55578130588954	0	0	0
376	1	1	-48.77248936330554	-35.71612623631853	54.85533477843424	0	0	0
377	1	1	-49.61672457529413	-35.75332281627524	55.39001535717084	0	0	0
378	1	1	-50.46095978728272	-35.30887414215753	55.68956882971554	0	0	0
379	1	1	-51.30519499927131	-35.346070722114234	56.22424940845214	0	0	0
380	1	1	-52.1494302112599	-34.901622047996526	56.52380288099684	0	0	0
381	1	1	-52.99366542324849	-34.93881862795323	57.05848345973344	0	0	0
382	1	1	-53.83790063523708	-34.49436995383552	57.35803693227814	0	0	0
383	1	1	-54.682135847225666	-34.53156653379223	57.89271751101474	0	0	0
384	1	1	-55.526371059214256	-34.08711785967452	58.19227098355944	0	0	0
385	1	1	-56.370606271202846	-34.12431443963123	58.72695156229604	0	0	0
386	1	1	-57.214841483191435	-33.67986576551352	59.02650503484074	0	0	0
387	1	1	-58.059076695180025	-33.717062345470225	59.56118561357734	0	0	0
388	1	1	-58.903311907168614	-33.27261367135252	59.86073908612204	0	0	0
389	1	1	-59.747547119157204	-33.30981025130922	60.395419664858636	0	0	0
390	1	1	-60.591782331145794	-32.865361577191514	60.69497313740334	0	0	0
391	1	1	-61.43601754313438	-32.90255815714822	61.229653716139936	0	0	0
392	1	1	-62.28025275512297	-32.45810948303051	61.52920718868464	0	0	0
393	1	1	-63.12448796711156	-32.49530606298722	62.063887767421235	0	0	0
394	1	1	-63.96872317910015	-32.05085738886951	62.36344123996594	0	0	0
395	1	1	-64.81295839108874	-32.088053968826216	62.898121818702535	0	0	0
396	1	1	-65.65719360307733	-31.643605294708507	63.197675291247236	0	0	0
397	1	1	-66.50142881506592	-31.680801874665214	63.732355869983834	0	0	0
398	1	1	-67.34566402705451	-31.236353200547505	64.03190934252854	0	0	0
399	1	1	-68.1898992390431	-31.27354978050421	64.56658992126513	0	0	0
400	1	1	-69.03413445103169	-30.829101106386503	64.86614339380984	0	0	0
401	1	1	-69.87836966302028	-30.86629768634321	65.40082397254643	0	0	0
402	1	1	-70.72260487500887	-30.4218490122255	65.70037744509114	0	0	0
403	1	1	-71.56684008699746	-30.459045592182207	66.23505802382773	0	0	0
404	1	1	-72.41107529898605	-30.0145969180645	66.53461149637243	0	0	0
405	1	1	-73.25531051097464	-30.051793498021205	67.06929207510903	0	0	0
406	1	1	-74.09954572296323	-29.607344823903496	67.36884554765373	0	0	0
407	1	1	-74.94378093495182	-29.644541403860202	67.90352612639033	0	0	0
408	1	1	-75.78801614694041	-29.200092729742494	68.20307959893503	0	0	0
409	1	1	-76.632251358929	-29.2372893096992	68.73776017767163	0	0	0
410	1	1	-77.47648657091759	-28.79284063558149	69.03731365021633	0	0	0
411	1	1	-78.32072178290618	-28.830037215538198	69.57199422895293	0	0	0
412	1	1	-79.16495699489477	-28.38558854142049	69.87154770149763	0	0	0
413	1	1	-80.00919220688336	-28.422785121377196	70.40622828023423	0	0	0
414	1	1	-80.85342741887195	-27.978336447259487	70.70578175277893	0	0	0
415	1	1	-81.69766263086053	-28.015533027216193	71.24046233151553	0	0	0
416	1	1	-82.54189784284912	-27.571084353098485	71.54001580406023	0	0	0
417	1	1	-83.38613305483771	-27.60828093305519	72.07469638279683	0	0	0
418	1	1	-84.2303682668263	-27.163832258937482	72.37424985534153	0	0	0
419	1	1	-85.0746034788149	-27.20102883889419	72.90893043407813	0	0	0
420	1	1	-85.91883869080348	-26.75658016477648	73.20848390662283	0	0	0
421	1	1	-86.76307390279207	-26.793776744733186	73.74316448535943	0	0	0
422	1	1	-87.60730911478066	-26.349328070615478	74.04271795790413	0	0	0
423	1	1	-88.45154432676925	-26.386524650572184	74.57739853664073	0	0	0
424	1	1	-89.29577953875784	-25.942075976454475	74.87695200918543	0	0	0
425	1	1	-90.14001475074643	-25.979272556411182	75.41163258792203	0	0	0
426	1	1	-90.98424996273502	-25.534823882293473	75.71118606046673	0	0	0
427	1	1	-91.82848517472361	-25.57202046225018	76.24586663920333	0	0	0
428	1	1	-92.6727203867122	-25.12757178813247	76.54542011174803	0	0	0
429	1	1	-93.51695559870079	-25.164768368089177	77.08010069048463	0	0	0
430	1	1	-94.36119081068938	-24.72031969397147	77.37965416302933	0	0	0
431	1	1	-95.20542602267797	-24.757516273928175	77.91433474176593	0	0	0
432	1	1	-96.04966123466656	-24.313067599810466	78.21388821431063	0	0	0
433	1	1	-96.89389644665515	-24.350264179767173	78.74856879304723	0	0	0
434	1	1	-97.73813165864374	-23.905815505649464	79.04812226559193	0	0	0
435	1	1	-98.58236687063233	-23.94301208560617	79.58280284432853	0	0	0
436	1	1	-99.22008620932525	-24.583955468241257	79.15559607318208	0	0	0
437	1	1	-99.85780554801816	-24.92542533441755	78.465152465383	0	0	0
438	1	1	-100.49552488671108	-25.694101971740285	78.415652240219	0	0	0
439	1	1	-101.133244225404	-26.035571837916578	77.72520863241992	0	0	0
440	1	1	-101.77096356409692	-26.804248475239312	77.67570840725593	0	0	0
441	1	1	-102.40868290278983	-27.145718341415606	76.98526479945684	0	0	0
442	1	1	-103.04640224148275	-27.91439497873834	76.93576457429285	0	0	0
443	1	1	-103.68412158017567	-28.255864844914633	76.24532096649376	0	0	0
444	1	1	-104.32184091886859	-29.024541482237368	76.19582074132977	0	0	0