bb412nuc5bl68bn4d30tot1100V2

1093 atoms
1092 bonds
1106 angles

1 atom types
1 bond types
1 angle types

-1000 1000 xlo xhi
-1000 1000 ylo yhi
-1000 1000 zlo zhi

Masses

1 1

Atoms

1	1	1	0.0	0.0	0.0	0	0	0
2	1	1	0.0	0.0	1.0	0	0	0
3	1	1	0.0	-0.49999999999999994	1.8660254037844388	0	0	0
4	1	1	0.0	0.0	2.7320508075688776	0	0	0
5	1	1	0.0	-0.49999999999999994	3.5980762113533165	0	0	0
6	1	1	0.0	0.0	4.464101615137755	0	0	0
7	1	1	0.0	-0.49999999999999994	5.330127018922194	0	0	0
8	1	1	0.0	0.0	6.196152422706632	0	0	0
9	1	1	0.0	-0.49999999999999994	7.06217782649107	0	0	0
10	1	1	0.0	0.0	7.928203230275509	0	0	0
11	1	1	0.0	-0.49999999999999994	8.794228634059948	0	0	0
12	1	1	0.0	0.0	9.660254037844387	0	0	0
13	1	1	0.0	-0.49999999999999994	10.526279441628827	0	0	0
14	1	1	0.0	0.0	11.392304845413266	0	0	0
15	1	1	0.0	-0.49999999999999994	12.258330249197705	0	0	0
16	1	1	0.0	0.0	13.124355652982144	0	0	0
17	1	1	0.0	-0.49999999999999994	13.990381056766584	0	0	0
18	1	1	0.0	0.0	14.856406460551023	0	0	0
19	1	1	0.0	-0.49999999999999994	15.722431864335462	0	0	0
20	1	1	0.0	0.0	16.5884572681199	0	0	0
21	1	1	0.0	-0.49999999999999994	17.454482671904337	0	0	0
22	1	1	0.0	0.0	18.320508075688775	0	0	0
23	1	1	0.0	-0.49999999999999994	19.186533479473212	0	0	0
24	1	1	0.0	0.0	20.05255888325765	0	0	0
25	1	1	0.0	-0.49999999999999994	20.918584287042087	0	0	0
26	1	1	0.0	0.0	21.784609690826525	0	0	0
27	1	1	0.0	-0.49999999999999994	22.650635094610962	0	0	0
28	1	1	0.0	0.0	23.5166604983954	0	0	0
29	1	1	0.0	-0.49999999999999994	24.382685902179837	0	0	0
30	1	1	0.0	0.0	25.248711305964274	0	0	0
31	1	1	0.0	-0.49999999999999994	26.114736709748712	0	0	0
32	1	1	0.0	0.0	26.98076211353315	0	0	0
33	1	1	0.0	-0.49999999999999994	27.846787517317587	0	0	0
34	1	1	0.0	0.0	28.712812921102024	0	0	0
35	1	1	0.0	-0.49999999999999994	29.578838324886462	0	0	0
36	1	1	0.0	0.0	30.4448637286709	0	0	0
37	1	1	0.0	-0.49999999999999994	31.310889132455337	0	0	0
38	1	1	0.0	0.0	32.17691453623978	0	0	0
39	1	1	0.0	-0.49999999999999994	33.04293994002422	0	0	0
40	1	1	0.0	0.0	33.90896534380866	0	0	0
41	1	1	0.0	-0.49999999999999994	34.7749907475931	0	0	0
42	1	1	0.0	0.0	35.64101615137754	0	0	0
43	1	1	0.0	-0.49999999999999994	36.50704155516198	0	0	0
44	1	1	0.0	0.0	37.373066958946424	0	0	0
45	1	1	0.0	-0.49999999999999994	38.239092362730865	0	0	0
46	1	1	0.0	0.0	39.105117766515306	0	0	0
47	1	1	0.0	-0.49999999999999994	39.97114317029975	0	0	0
48	1	1	0.0	0.0	40.83716857408419	0	0	0
49	1	1	0.0	-0.49999999999999994	41.70319397786863	0	0	0
50	1	1	0.0	0.0	42.56921938165307	0	0	0
51	1	1	0.0	-0.49999999999999994	43.43524478543751	0	0	0
52	1	1	0.0	0.0	44.30127018922195	0	0	0
53	1	1	0.0	-0.49999999999999994	45.16729559300639	0	0	0
54	1	1	0.0	0.0	46.033320996790835	0	0	0
55	1	1	0.0	-0.49999999999999994	46.899346400575276	0	0	0
56	1	1	0.0	0.0	47.76537180435972	0	0	0
57	1	1	0.0	-0.49999999999999994	48.63139720814416	0	0	0
58	1	1	0.0	0.0	49.4974226119286	0	0	0
59	1	1	0.0	-0.49999999999999994	50.36344801571304	0	0	0
60	1	1	0.0	0.0	51.22947341949748	0	0	0
61	1	1	0.0	-0.49999999999999994	52.09549882328192	0	0	0
62	1	1	0.0	0.0	52.96152422706636	0	0	0
63	1	1	0.0	-0.49999999999999994	53.827549630850804	0	0	0
64	1	1	0.0	0.0	54.693575034635245	0	0	0
65	1	1	0.0	-0.49999999999999994	55.559600438419686	0	0	0
66	1	1	0.0	0.0	56.42562584220413	0	0	0
67	1	1	0.0	-0.49999999999999994	57.29165124598857	0	0	0
68	1	1	0.0	0.0	58.15767664977301	0	0	0
69	1	1	0.0	-0.49999999999999994	59.02370205355745	0	0	0
70	1	1	0.7603207898428225	-0.18434363234202217	59.59139330246813	0	0	0
71	1	1	1.5206415796856434	-0.1948228235392303	60.240856529359874	0	0	0
72	1	1	2.2809623695284644	0.36238923417423563	60.57466338859364	0	0	0
73	1	1	3.0412831593712855	0.3519100429770275	61.22412661548539	0	0	0
74	1	1	3.8016039492141065	0.9091221006904935	61.55793347471916	0	0	0
75	1	1	4.561924739056927	0.8986429094932853	62.207396701610904	0	0	0
76	1	1	5.322245528899748	1.4558549672067511	62.54120356084467	0	0	0
77	1	1	6.082566318742568	1.445375776009543	63.19066678773642	0	0	0
78	1	1	6.842887108585389	2.002587833723009	63.524473646970186	0	0	0
79	1	1	7.603207898428209	1.9921086425258008	64.17393687386193	0	0	0
80	1	1	8.36352868827103	2.549320700239267	64.50774373309571	0	0	0
81	1	1	9.12384947811385	2.538841509042059	65.15720695998746	0	0	0
82	1	1	9.884170267956671	3.0960535667555247	65.49101381922124	0	0	0
83	1	1	10.644491057799492	3.0855743755583167	66.14047704611299	0	0	0
84	1	1	11.404811847642312	3.6427864332717825	66.47428390534677	0	0	0
85	1	1	12.165132637485133	3.6323072420745746	67.12374713223852	0	0	0
86	1	1	12.925453427327954	4.18951929978804	67.4575539914723	0	0	0
87	1	1	13.685774217170774	4.179040108590832	68.10701721836405	0	0	0
88	1	1	14.446095007013595	4.736252166304298	68.44082407759782	0	0	0
89	1	1	15.206415796856415	4.725772975107089	69.09028730448958	0	0	0
90	1	1	15.966736586699236	5.282985032820555	69.42409416372335	0	0	0
91	1	1	16.727057376542056	5.272505841623347	70.07355739061511	0	0	0
92	1	1	17.48737816638488	5.829717899336813	70.40736424984888	0	0	0
93	1	1	18.2476989562277	5.819238708139604	71.05682747674064	0	0	0
94	1	1	19.008019746070524	6.37645076585307	71.39063433597441	0	0	0
95	1	1	19.768340535913346	6.365971574655862	72.04009756286617	0	0	0
96	1	1	20.52866132575617	6.923183632369327	72.37390442209994	0	0	0
97	1	1	21.28898211559899	6.912704441172119	73.0233676489917	0	0	0
98	1	1	22.049302905441813	7.469916498885585	73.35717450822547	0	0	0
99	1	1	22.809623695284635	7.459437307688376	74.00663773511722	0	0	0
100	1	1	23.569944485127458	8.016649365401843	74.340444594351	0	0	0
101	1	1	24.33026527497028	8.006170174204636	74.98990782124275	0	0	0
102	1	1	25.090586064813102	8.563382231918101	75.32371468047653	0	0	0
103	1	1	25.850906854655925	8.552903040720894	75.97317790736828	0	0	0
104	1	1	26.611227644498747	9.11011509843436	76.30698476660206	0	0	0
105	1	1	27.37154843434157	9.099635907237152	76.95644799349381	0	0	0
106	1	1	28.131869224184392	9.656847964950618	77.29025485272759	0	0	0
107	1	1	28.892190014027214	9.64636877375341	77.93971807961934	0	0	0
108	1	1	29.652510803870037	10.203580831466876	78.27352493885311	0	0	0
109	1	1	30.41283159371286	10.193101640269669	78.92298816574487	0	0	0
110	1	1	31.17315238355568	10.750313697983135	79.25679502497864	0	0	0
111	1	1	31.933473173398504	10.739834506785927	79.9062582518704	0	0	0
112	1	1	32.693793963241326	11.297046564499393	80.24006511110417	0	0	0
113	1	1	33.45411475308415	11.286567373302185	80.88952833799593	0	0	0
114	1	1	34.21443554292697	11.843779431015651	81.2233351972297	0	0	0
115	1	1	34.97475633276979	11.833300239818444	81.87279842412146	0	0	0
116	1	1	35.735077122612616	12.39051229753191	82.20660528335523	0	0	0
117	1	1	36.49539791245544	12.380033106334702	82.85606851024698	0	0	0
118	1	1	37.25571870229826	12.937245164048168	83.18987536948076	0	0	0
119	1	1	38.01603949214108	12.92676597285096	83.83933859637251	0	0	0
120	1	1	38.776360281983905	13.483978030564426	84.17314545560629	0	0	0
121	1	1	39.53668107182673	13.473498839367219	84.82260868249804	0	0	0
122	1	1	40.29700186166955	14.030710897080684	85.15641554173182	0	0	0
123	1	1	41.05732265151237	14.020231705883477	85.80587876862357	0	0	0
124	1	1	41.817643441355195	14.577443763596943	86.13968562785735	0	0	0
125	1	1	42.57796423119802	14.566964572399735	86.7891488547491	0	0	0
126	1	1	43.33828502104084	15.124176630113201	87.12295571398288	0	0	0
127	1	1	44.09860581088366	15.113697438915993	87.77241894087463	0	0	0
128	1	1	44.858926600726484	15.67090949662946	88.1062258001084	0	0	0
129	1	1	45.619247390569306	15.660430305432252	88.75568902700016	0	0	0
130	1	1	46.37956818041213	16.217642363145718	89.08949588623393	0	0	0
131	1	1	47.13988897025495	16.20716317194851	89.73895911312569	0	0	0
132	1	1	47.90020976009777	16.764375229661976	90.07276597235946	0	0	0
133	1	1	48.660530549940596	16.753896038464767	90.72222919925122	0	0	0
134	1	1	49.42085133978342	17.311108096178234	91.05603605848499	0	0	0
135	1	1	50.18117212962624	17.300628904981025	91.70549928537675	0	0	0
136	1	1	50.94149291946906	17.857840962694493	92.03930614461052	0	0	0
137	1	1	51.701813709311885	17.847361771497283	92.68876937150227	0	0	0
138	1	1	0.1023994023534477	-1.4784239206364347	58.84425569966836	0	0	0
139	1	1	0.2047988047068952	-2.2360407146334103	58.1996386382657	0	0	0
140	1	1	0.30719820706034273	-3.173103862519475	58.53344549749947	0	0	0
141	1	1	0.4095976094137902	-3.9307206565164505	57.88882843609681	0	0	0
142	1	1	0.5119970117672377	-4.8677838044025155	58.22263529533058	0	0	0
143	1	1	0.6143964141206851	-5.625400598399491	57.57801823392792	0	0	0
144	1	1	0.7167958164741326	-6.562463746285556	57.911825093161696	0	0	0
145	1	1	0.8191952188275801	-7.3200805402825315	57.26720803175903	0	0	0
146	1	1	0.9215946211810275	-8.257143688168597	57.60101489099281	0	0	0
147	1	1	1.023994023534475	-9.014760482165572	56.956397829590145	0	0	0
148	1	1	1.1263934258879227	-9.951823630051637	57.29020468882392	0	0	0
149	1	1	1.2287928282413703	-10.709440424048612	56.64558762742126	0	0	0
150	1	1	1.3311922305948178	-11.646503571934677	56.97939448665503	0	0	0
151	1	1	1.4335916329482654	-12.404120365931652	56.33477742525237	0	0	0
152	1	1	1.535991035301713	-13.341183513817716	56.668584284486144	0	0	0
153	1	1	1.6383904376551606	-14.098800307814692	56.02396722308348	0	0	0
154	1	1	1.7407898400086081	-15.035863455700756	56.357774082317256	0	0	0
155	1	1	1.8431892423620557	-15.793480249697732	55.71315702091459	0	0	0
156	1	1	1.9455886447155033	-16.730543397583798	56.04696388014837	0	0	0
157	1	1	2.0479880470689507	-17.488160191580775	55.402346818745706	0	0	0
158	1	1	2.1503874494223982	-18.42522333946684	55.73615367797948	0	0	0
159	1	1	2.252786851775846	-19.182840133463813	55.09153661657682	0	0	0
160	1	1	2.3551862541292934	-20.119903281349877	55.42534347581059	0	0	0
161	1	1	2.457585656482741	-20.87752007534685	54.78072641440793	0	0	0
162	1	1	2.5599850588361885	-21.814583223232916	55.114533273641705	0	0	0
163	1	1	2.662384461189636	-22.57220001722989	54.46991621223904	0	0	0
164	1	1	2.7647838635430837	-23.509263165115954	54.80372307147282	0	0	0
165	1	1	2.8671832658965313	-24.266879959112927	54.159106010070154	0	0	0
166	1	1	2.969582668249979	-25.20394310699899	54.49291286930393	0	0	0
167	1	1	3.0719820706034264	-25.961559900995965	53.848295807901266	0	0	0
168	1	1	3.174381472956874	-26.89862304888203	54.18210266713504	0	0	0
169	1	1	3.2767808753103216	-27.656239842879003	53.53748560573238	0	0	0
170	1	1	3.379180277663769	-28.593302990765068	53.87129246496615	0	0	0
171	1	1	3.4815796800172167	-29.35091978476204	53.22667540356349	0	0	0
172	1	1	3.5839790823706643	-30.287982932648106	53.560482262797265	0	0	0
173	1	1	3.686378484724112	-31.04559972664508	52.9158652013946	0	0	0
174	1	1	3.7887778870775595	-31.982662874531144	53.24967206062838	0	0	0
175	1	1	3.891177289431007	-32.74027966852812	52.605054999225715	0	0	0
176	1	1	3.9935766917844546	-33.67734281641418	52.93886185845949	0	0	0
177	1	1	4.095976094137902	-34.434959610411155	52.29424479705683	0	0	0
178	1	1	4.19837549649135	-35.37202275829722	52.6280516562906	0	0	0
179	1	1	4.300774898844797	-36.12963955229419	51.98343459488794	0	0	0
180	1	1	4.403174301198245	-37.06670270018026	52.317241454121714	0	0	0
181	1	1	4.5055737035516925	-37.82431949417723	51.67262439271905	0	0	0
182	1	1	4.60797310590514	-38.761382642063296	52.006431251952826	0	0	0
183	1	1	4.710372508258588	-39.51899943606027	51.36181419055016	0	0	0
184	1	1	4.812771910612035	-40.456062583946334	51.69562104978394	0	0	0
185	1	1	4.915171312965483	-41.21367937794331	51.051003988381275	0	0	0
186	1	1	5.01757071531893	-42.15074252582937	51.38481084761505	0	0	0
187	1	1	5.119970117672378	-42.908359319826346	50.74019378621239	0	0	0
188	1	1	5.2223695200258256	-43.84542246771241	51.07400064544616	0	0	0
189	1	1	5.324768922379273	-44.603039261709384	50.4293835840435	0	0	0
190	1	1	5.427168324732721	-45.54010240959545	50.763190443277274	0	0	0
191	1	1	5.529567727086168	-46.29771920359242	50.11857338187461	0	0	0
192	1	1	5.631967129439616	-47.234782351478486	50.452380241108386	0	0	0
193	1	1	5.734366531793063	-47.99239914547546	49.807763179705724	0	0	0
194	1	1	5.836765934146511	-48.929462293361524	50.1415700389395	0	0	0
195	1	1	5.939165336499959	-49.6870790873585	49.496952977536836	0	0	0
196	1	1	6.041564738853406	-50.62414223524456	49.83075983677061	0	0	0
197	1	1	6.143964141206854	-51.381759029241536	49.18614277536795	0	0	0
198	1	1	6.246363543560301	-52.3188221771276	49.51994963460172	0	0	0
199	1	1	6.348762945913749	-53.076438971124574	48.87533257319906	0	0	0
200	1	1	6.4511623482671965	-54.01350211901064	49.209139432432835	0	0	0
201	1	1	6.553561750620644	-54.77111891300761	48.56452237103017	0	0	0
202	1	1	6.655961152974092	-55.70818206089368	48.89832923026395	0	0	0
203	1	1	6.758360555327539	-56.46579885489065	48.253712168861284	0	0	0
204	1	1	6.860759957680987	-57.402862002776715	48.58751902809506	0	0	0
205	1	1	6.963159360034434	-58.16047879677369	47.942901966692396	0	0	0
206	1	1	-0.8627201921962708	-0.3379427358721934	59.502712818697695	0	0	0
207	1	1	-1.7254403843925399	-0.43710241083983103	59.99857694205927	0	0	0
208	1	1	-2.588160576588809	-0.057251320667223826	60.33238380129304	0	0	0
209	1	1	-3.450880768785078	-0.15641099563486144	60.82824792465462	0	0	0
210	1	1	-4.313600960981347	0.22344009453774577	61.16205478388839	0	0	0
211	1	1	-5.176321153177616	0.12428041957010816	61.657918907249964	0	0	0
212	1	1	-6.039041345373885	0.5041315097427154	61.99172576648373	0	0	0
213	1	1	-6.901761537570154	0.40497183477507775	62.48758988984531	0	0	0
214	1	1	-7.764481729766423	0.784822924947685	62.82139674907908	0	0	0
215	1	1	-8.627201921962692	0.6856632499800475	63.317260872440656	0	0	0
216	1	1	-9.489922114158961	1.0655143401526548	63.651067731674424	0	0	0
217	1	1	-10.35264230635523	0.9663546651850172	64.146931855036	0	0	0
218	1	1	-11.2153624985515	1.3462057553576243	64.48073871426978	0	0	0
219	1	1	-12.078082690747769	1.2470460803899868	64.97660283763135	0	0	0
220	1	1	-12.940802882944038	1.6268971705625939	65.31040969686512	0	0	0
221	1	1	-13.803523075140307	1.5277374955949563	65.80627382022669	0	0	0
222	1	1	-14.666243267336576	1.9075885857675634	66.14008067946047	0	0	0
223	1	1	-15.528963459532845	1.8084289107999258	66.63594480282204	0	0	0
224	1	1	-16.391683651729114	2.188280000972533	66.96975166205581	0	0	0
225	1	1	-17.25440384392538	2.0891203260048954	67.46561578541738	0	0	0
226	1	1	-18.117124036121652	2.4689714161775025	67.79942264465116	0	0	0
227	1	1	-18.979844228317923	2.369811741209865	68.29528676801273	0	0	0
228	1	1	-19.842564420514194	2.749662831382472	68.6290936272465	0	0	0
229	1	1	-20.705284612710464	2.6505031564148345	69.12495775060808	0	0	0
230	1	1	-21.568004804906735	3.0303542465874416	69.45876460984185	0	0	0
231	1	1	-22.430724997103006	2.931194571619804	69.95462873320342	0	0	0
232	1	1	-23.293445189299277	3.311045661792411	70.2884355924372	0	0	0
233	1	1	-24.156165381495548	3.2118859868247736	70.78429971579877	0	0	0
234	1	1	-25.01888557369182	3.5917370769973807	71.11810657503254	0	0	0
235	1	1	-25.88160576588809	3.492577402029743	71.61397069839411	0	0	0
236	1	1	-26.74432595808436	3.87242849220235	71.94777755762789	0	0	0
237	1	1	-27.60704615028063	3.7732688172347126	72.44364168098946	0	0	0
238	1	1	-28.469766342476902	4.15311990740732	72.77744854022323	0	0	0
239	1	1	-29.332486534673173	4.053960232439683	73.2733126635848	0	0	0
240	1	1	-30.195206726869444	4.43381132261229	73.60711952281858	0	0	0
241	1	1	-31.057926919065714	4.334651647644653	74.10298364618015	0	0	0
242	1	1	-31.920647111261985	4.71450273781726	74.43679050541392	0	0	0
243	1	1	-32.783367303458256	4.615343062849623	74.9326546287755	0	0	0
244	1	1	-33.64608749565453	4.99519415302223	75.26646148800927	0	0	0
245	1	1	-34.5088076878508	4.896034478054593	75.76232561137084	0	0	0
246	1	1	-35.37152788004707	5.2758855682272	76.09613247060462	0	0	0
247	1	1	-36.23424807224334	5.176725893259563	76.59199659396619	0	0	0
248	1	1	-37.09696826443961	5.55657698343217	76.92580345319996	0	0	0
249	1	1	-37.95968845663588	5.4574173084645325	77.42166757656153	0	0	0
250	1	1	-38.82240864883215	5.83726839863714	77.7554744357953	0	0	0
251	1	1	-39.68512884102842	5.7381087236695025	78.25133855915688	0	0	0
252	1	1	-40.54784903322469	6.11795981384211	78.58514541839065	0	0	0
253	1	1	-41.410569225420964	6.0188001388744725	79.08100954175222	0	0	0
254	1	1	-42.273289417617235	6.39865122904708	79.414816400986	0	0	0
255	1	1	-43.136009609813506	6.2994915540794425	79.91068052434757	0	0	0
256	1	1	-43.99872980200978	6.67934264425205	80.24448738358134	0	0	0
257	1	1	-44.86144999420605	6.5801829692844125	80.74035150694291	0	0	0
258	1	1	-45.72417018640232	6.96003405945702	81.07415836617669	0	0	0
259	1	1	-46.58689037859859	6.8608743844893825	81.57002248953826	0	0	0
260	1	1	-47.44961057079486	7.24072547466199	81.90382934877204	0	0	0
261	1	1	-48.31233076299113	7.1415657996943525	82.3996934721336	0	0	0
262	1	1	-49.1750509551874	7.52141688986696	82.73350033136738	0	0	0
263	1	1	-50.03777114738367	7.422257214899322	83.22936445472895	0	0	0
264	1	1	-50.90049133957994	7.80210830507193	83.56317131396273	0	0	0
265	1	1	-51.763211531776214	7.702948630104292	84.0590354373243	0	0	0
266	1	1	-52.625931723972485	8.082799720276899	84.39284229655807	0	0	0
267	1	1	-53.488651916168756	7.9836400453092615	84.88870641991964	0	0	0
268	1	1	-54.35137210836503	8.363491135481869	85.22251327915342	0	0	0
269	1	1	-55.2140923005613	8.264331460514232	85.71837740251499	0	0	0
270	1	1	-56.07681249275757	8.644182550686839	86.05218426174876	0	0	0
271	1	1	-56.93953268495384	8.545022875719201	86.54804838511033	0	0	0
272	1	1	-57.80225287715011	8.924873965891809	86.88185524434411	0	0	0
273	1	1	-58.66497306934638	8.825714290924171	87.37771936770568	0	0	0
274	1	1	-59.52769326154265	9.205565381096779	87.71152622693945	0	0	0
275	1	1	-59.40907053451399	9.528678999867878	88.650422514075	0	0	0
276	1	1	-59.29044780748532	9.339055458464594	89.62508735963883	0	0	0
277	1	1	-59.17182508045666	10.088328204196863	90.27663858643156	0	0	0
278	1	1	-59.05320235342799	9.898704662793579	91.25130343199538	0	0	0
279	1	1	-58.93457962639933	10.647977408525847	91.90285465878812	0	0	0
280	1	1	-58.81595689937066	10.458353867122563	92.87751950435194	0	0	0
281	1	1	-58.697334172341996	11.207626612854831	93.52907073114467	0	0	0
282	1	1	-58.57871144531333	11.018003071451547	94.5037355767085	0	0	0
283	1	1	-58.460088718284666	11.767275817183815	95.15528680350123	0	0	0
284	1	1	-58.341465991256	11.577652275780531	96.12995164906505	0	0	0
285	1	1	-58.222843264227336	12.3269250215128	96.78150287585778	0	0	0
286	1	1	-58.10422053719867	12.137301480109516	97.7561677214216	0	0	0
287	1	1	-57.985597810170006	12.886574225841784	98.40771894821434	0	0	0
288	1	1	-57.86697508314134	12.6969506844385	99.38238379377816	0	0	0
289	1	1	-57.748352356112676	13.446223430170768	100.0339350205709	0	0	0
290	1	1	-57.62972962908401	13.256599888767484	101.00859986613472	0	0	0
291	1	1	-57.511106902055346	14.005872634499752	101.66015109292745	0	0	0
292	1	1	-57.39248417502668	13.816249093096468	102.63481593849127	0	0	0
293	1	1	-57.273861447998016	14.565521838828737	103.286367165284	0	0	0
294	1	1	-57.15523872096935	14.375898297425453	104.26103201084783	0	0	0
295	1	1	-57.036615993940686	15.12517104315772	104.91258323764056	0	0	0
296	1	1	-56.91799326691202	14.935547501754437	105.88724808320438	0	0	0
297	1	1	-56.799370539883355	15.684820247486705	106.53879930999712	0	0	0
298	1	1	-56.68074781285469	15.495196706083421	107.51346415556094	0	0	0
299	1	1	-56.562125085826025	16.24446945181569	108.16501538235367	0	0	0
300	1	1	-56.44350235879736	16.054845910412407	109.1396802279175	0	0	0
301	1	1	-56.324879631768695	16.804118656144677	109.79123145471023	0	0	0
302	1	1	-56.20625690474003	16.614495114741395	110.76589630027405	0	0	0
303	1	1	-56.087634177711365	17.363767860473665	111.41744752706678	0	0	0
304	1	1	-55.9690114506827	17.174144319070383	112.3921123726306	0	0	0
305	1	1	-55.850388723654035	17.923417064802653	113.04366359942334	0	0	0
306	1	1	-55.73176599662537	17.73379352339937	114.01832844498716	0	0	0
307	1	1	-55.613143269596705	18.48306626913164	114.6698796717799	0	0	0
308	1	1	-55.49452054256804	18.293442727728358	115.64454451734372	0	0	0
309	1	1	-55.375897815539375	19.04271547346063	116.29609574413645	0	0	0
310	1	1	-55.25727508851071	18.853091932057346	117.27076058970027	0	0	0
311	1	1	-55.138652361482045	19.602364677789616	117.922311816493	0	0	0
312	1	1	-55.02002963445338	19.412741136386334	118.89697666205683	0	0	0
313	1	1	-54.901406907424715	20.162013882118604	119.54852788884956	0	0	0
314	1	1	-54.78278418039605	19.97239034071532	120.52319273441339	0	0	0
315	1	1	-54.664161453367385	20.72166308644759	121.17474396120612	0	0	0
316	1	1	-54.54553872633872	20.53203954504431	122.14940880676994	0	0	0
317	1	1	-54.426915999310054	21.28131229077658	122.80096003356267	0	0	0
318	1	1	-54.30829327228139	21.091688749373297	123.7756248791265	0	0	0
319	1	1	-54.189670545252724	21.840961495105567	124.42717610591923	0	0	0
320	1	1	-54.07104781822406	21.651337953702285	125.40184095148305	0	0	0
321	1	1	-53.952425091195394	22.400610699434555	126.05339217827579	0	0	0
322	1	1	-53.83380236416673	22.210987158031273	127.02805702383961	0	0	0
323	1	1	-53.715179637138064	22.960259903763543	127.67960825063234	0	0	0
324	1	1	-53.5965569101094	22.77063636236026	128.65427309619616	0	0	0
325	1	1	-53.477934183080734	23.51990910809253	129.30582432298888	0	0	0
326	1	1	-53.35931145605207	23.33028556668925	130.28048916855272	0	0	0
327	1	1	-53.240688729023404	24.07955831242152	130.93204039534544	0	0	0
328	1	1	-53.12206600199474	23.889934771018236	131.90670524090928	0	0	0
329	1	1	-53.003443274966074	24.639207516750506	132.558256467702	0	0	0
330	1	1	-52.88482054793741	24.449583975347224	133.53292131326583	0	0	0
331	1	1	-52.766197820908744	25.198856721079494	134.18447254005855	0	0	0
332	1	1	-52.64757509388008	25.00923317967621	135.1591373856224	0	0	0
333	1	1	-52.528952366851414	25.758505925408482	135.8106886124151	0	0	0
334	1	1	-52.41032963982275	25.5688823840052	136.78535345797894	0	0	0
335	1	1	-52.29170691279408	26.31815512973747	137.43690468477166	0	0	0
336	1	1	-52.17308418576542	26.128531588334187	138.4115695303355	0	0	0
337	1	1	-52.05446145873675	26.877804334066457	139.06312075712822	0	0	0
338	1	1	-51.93583873170809	26.688180792663175	140.03778560269205	0	0	0
339	1	1	-51.81721600467942	27.437453538395445	140.68933682948477	0	0	0
340	1	1	-51.69859327765076	27.247829996992163	141.6640016750486	0	0	0
341	1	1	-51.57997055062209	27.997102742724433	142.31555290184133	0	0	0
342	1	1	-51.46134782359343	27.80747920132115	143.29021774740517	0	0	0
343	1	1	-60.234430104074434	8.498427122397256	87.68965116141678	0	0	0
344	1	1	-60.94116694660621	7.896964959136917	87.31713766961494	0	0	0
345	1	1	-61.647903789137985	7.273627730353901	87.65176243651261	0	0	0
346	1	1	-62.35464063166976	6.672165567093562	87.27924894471076	0	0	0
347	1	1	-63.061377474201535	6.048828338310546	87.61387371160843	0	0	0
348	1	1	-63.76811431673331	5.447366175050207	87.24136021980658	0	0	0
349	1	1	-64.47485115926509	4.824028946267191	87.57598498670426	0	0	0
350	1	1	-65.18158800179687	4.222566783006852	87.2034714949024	0	0	0
351	1	1	-65.88832484432865	3.5992295542238364	87.53809626180008	0	0	0
352	1	1	-66.59506168686043	2.9977673909634968	87.16558276999822	0	0	0
353	1	1	-67.30179852939222	2.3744301621804813	87.5002075368959	0	0	0
354	1	1	-68.008535371924	1.772967998920142	87.12769404509405	0	0	0
355	1	1	-68.71527221445578	1.1496307701371264	87.46231881199172	0	0	0
356	1	1	-69.42200905698756	0.548168606876787	87.08980532018987	0	0	0
357	1	1	-70.12874589951934	-0.07516862190622842	87.42443008708754	0	0	0
358	1	1	-70.83548274205113	-0.6766307851665678	87.05191659528569	0	0	0
359	1	1	-71.54221958458291	-1.2999680139495833	87.38654136218337	0	0	0
360	1	1	-72.24895642711469	-1.9014301772099227	87.01402787038151	0	0	0
361	1	1	-72.95569326964647	-2.524767405992938	87.34865263727919	0	0	0
362	1	1	-73.66243011217826	-3.1262295692532778	86.97613914547733	0	0	0
363	1	1	-74.36916695471004	-3.7495667980362932	87.31076391237501	0	0	0
364	1	1	-75.07590379724182	-4.351028961296633	86.93825042057315	0	0	0
365	1	1	-75.7826406397736	-4.974366190079648	87.27287518747083	0	0	0
366	1	1	-76.48937748230539	-5.575828353339987	86.90036169566898	0	0	0
367	1	1	-77.19611432483717	-6.199165582123003	87.23498646256665	0	0	0
368	1	1	-77.90285116736895	-6.800627745383342	86.8624729707648	0	0	0
369	1	1	-78.60958800990073	-7.423964974166358	87.19709773766247	0	0	0
370	1	1	-79.31632485243252	-8.025427137426698	86.82458424586062	0	0	0
371	1	1	-80.0230616949643	-8.648764366209713	87.1592090127583	0	0	0
372	1	1	-80.72979853749608	-9.250226529470053	86.78669552095644	0	0	0
373	1	1	-81.43653538002786	-9.873563758253068	87.12132028785412	0	0	0
374	1	1	-82.14327222255965	-10.475025921513408	86.74880679605226	0	0	0
375	1	1	-82.85000906509143	-11.098363150296423	87.08343156294994	0	0	0
376	1	1	-83.55674590762321	-11.699825313556763	86.71091807114809	0	0	0
377	1	1	-84.26348275015499	-12.323162542339778	87.04554283804576	0	0	0
378	1	1	-84.97021959268677	-12.924624705600118	86.67302934624391	0	0	0
379	1	1	-85.67695643521856	-13.547961934383133	87.00765411314158	0	0	0
380	1	1	-86.38369327775034	-14.149424097643474	86.63514062133973	0	0	0
381	1	1	-87.09043012028212	-14.772761326426489	86.9697653882374	0	0	0
382	1	1	-87.7971669628139	-15.374223489686829	86.59725189643555	0	0	0
383	1	1	-88.50390380534569	-15.997560718469844	86.93187666333323	0	0	0
384	1	1	-89.21064064787747	-16.599022881730182	86.55936317153137	0	0	0
385	1	1	-89.91737749040925	-17.222360110513197	86.89398793842905	0	0	0
386	1	1	-90.62411433294103	-17.823822273773537	86.5214744466272	0	0	0
387	1	1	-91.33085117547282	-18.447159502556552	86.85609921352487	0	0	0
388	1	1	-92.0375880180046	-19.048621665816892	86.48358572172302	0	0	0
389	1	1	-92.74432486053638	-19.671958894599907	86.8182104886207	0	0	0
390	1	1	-93.45106170306816	-20.273421057860247	86.44569699681884	0	0	0
391	1	1	-94.15779854559995	-20.896758286643262	86.78032176371651	0	0	0
392	1	1	-94.86453538813173	-21.498220449903602	86.40780827191466	0	0	0
393	1	1	-95.57127223066351	-22.121557678686617	86.74243303881234	0	0	0
394	1	1	-96.27800907319529	-22.723019841946957	86.36991954701048	0	0	0
395	1	1	-96.98474591572707	-23.346357070729972	86.70454431390816	0	0	0
396	1	1	-97.69148275825886	-23.947819233990312	86.3320308221063	0	0	0
397	1	1	-98.39821960079064	-24.571156462773327	86.66665558900398	0	0	0
398	1	1	-99.10495644332242	-25.172618626033668	86.29414209720213	0	0	0
399	1	1	-99.8116932858542	-25.795955854816683	86.6287668640998	0	0	0
400	1	1	-100.51843012838599	-26.397418018077023	86.25625337229795	0	0	0
401	1	1	-101.22516697091777	-27.020755246860038	86.59087813919562	0	0	0
402	1	1	-101.93190381344955	-27.622217410120378	86.21836464739377	0	0	0
403	1	1	-102.63864065598133	-28.245554638903393	86.55298941429145	0	0	0
404	1	1	-103.34537749851312	-28.847016802163733	86.18047592248959	0	0	0
405	1	1	-104.0521143410449	-29.470354030946748	86.51510068938727	0	0	0
406	1	1	-104.75885118357668	-30.071816194207088	86.14258719758541	0	0	0
407	1	1	-105.46558802610846	-30.695153422990103	86.47721196448309	0	0	0
408	1	1	-106.17232486864025	-31.296615586250443	86.10469847268124	0	0	0
409	1	1	-106.87906171117203	-31.919952815033458	86.43932323957891	0	0	0
410	1	1	-107.58579855370381	-32.5214149782938	86.06680974777706	0	0	0
411	1	1	-59.80352489930331	9.969980719186337	87.12878606314112	0	0	0
412	1	1	-60.07935653706397	10.923353902913528	87.00632594653104	0	0	0
413	1	1	-60.35518817482463	11.29398692284239	86.1194504918314	0	0	0
414	1	1	-60.63101981258529	12.24736010656958	85.99699037522132	0	0	0
415	1	1	-60.906851450345954	12.617993126498442	85.11011492052168	0	0	0
416	1	1	-61.182683088106614	13.571366310225633	84.9876548039116	0	0	0
417	1	1	-61.458514725867275	13.941999330154495	84.10077934921196	0	0	0
418	1	1	-61.734346363627935	14.895372513881686	83.97831923260188	0	0	0
419	1	1	-62.010178001388596	15.266005533810548	83.09144377790224	0	0	0
420	1	1	-62.286009639149256	16.219378717537737	82.96898366129216	0	0	0
421	1	1	-62.56184127690992	16.590011737466597	82.08210820659252	0	0	0
422	1	1	-62.83767291467058	17.543384921193788	81.95964808998244	0	0	0
423	1	1	-63.11350455243124	17.914017941122648	81.0727726352828	0	0	0
424	1	1	-63.3893361901919	18.86739112484984	80.95031251867272	0	0	0
425	1	1	-63.66516782795256	19.2380241447787	80.06343706397308	0	0	0
426	1	1	-63.94099946571322	20.19139732850589	79.940976947363	0	0	0
427	1	1	-64.21683110347388	20.56203034843475	79.05410149266336	0	0	0
428	1	1	-64.49266274123454	21.51540353216194	78.93164137605328	0	0	0
429	1	1	-64.7684943789952	21.8860365520908	78.04476592135364	0	0	0
430	1	1	-65.04432601675586	22.83940973581799	77.92230580474356	0	0	0
431	1	1	-65.32015765451652	23.21004275574685	77.03543035004392	0	0	0
432	1	1	-65.59598929227718	24.163415939474042	76.91297023343384	0	0	0
433	1	1	-65.87182093003784	24.534048959402902	76.0260947787342	0	0	0
434	1	1	-66.1476525677985	25.487422143130093	75.90363466212412	0	0	0
435	1	1	-66.42348420555916	25.858055163058953	75.01675920742449	0	0	0
436	1	1	-66.69931584331982	26.811428346786144	74.8942990908144	0	0	0
437	1	1	-66.97514748108048	27.182061366715004	74.00742363611477	0	0	0
438	1	1	-67.25097911884114	28.135434550442195	73.88496351950468	0	0	0
439	1	1	-67.5268107566018	28.506067570371055	72.99808806480505	0	0	0
440	1	1	-67.80264239436246	29.459440754098246	72.87562794819496	0	0	0
441	1	1	-68.07847403212313	29.830073774027106	71.98875249349533	0	0	0
442	1	1	-68.35430566988379	30.783446957754297	71.86629237688524	0	0	0
443	1	1	-68.63013730764445	31.154079977683157	70.9794169221856	0	0	0
444	1	1	-68.9059689454051	32.10745316141035	70.85695680557552	0	0	0
445	1	1	-69.18180058316577	32.47808618133921	69.97008135087589	0	0	0
446	1	1	-69.45763222092643	33.431459365066395	69.8476212342658	0	0	0
447	1	1	-69.73346385868709	33.802092384995255	68.96074577956617	0	0	0
448	1	1	-70.00929549644775	34.75546556872244	68.83828566295608	0	0	0
449	1	1	-70.28512713420841	35.1260985886513	67.95141020825645	0	0	0