bb75nuc5bl12bn4d30tot200V2

193 atoms
192 bonds
206 angles

1 atom types
1 bond types
1 angle types

-1000 1000 xlo xhi
-1000 1000 ylo yhi
-1000 1000 zlo zhi

Masses

1 1

Atoms

1	1	1	0.0	0.0	0.0	0	0	0
2	1	1	0.0	0.0	1.0	0	0	0
3	1	1	0.0	-0.49999999999999994	1.8660254037844388	0	0	0
4	1	1	0.0	0.0	2.7320508075688776	0	0	0
5	1	1	0.0	-0.49999999999999994	3.5980762113533165	0	0	0
6	1	1	0.0	0.0	4.464101615137755	0	0	0
7	1	1	0.0	-0.49999999999999994	5.330127018922194	0	0	0
8	1	1	0.0	0.0	6.196152422706632	0	0	0
9	1	1	0.0	-0.49999999999999994	7.06217782649107	0	0	0
10	1	1	0.0	0.0	7.928203230275509	0	0	0
11	1	1	0.0	-0.49999999999999994	8.794228634059948	0	0	0
12	1	1	0.0	0.0	9.660254037844387	0	0	0
13	1	1	0.0	-0.49999999999999994	10.526279441628827	0	0	0
14	1	1	0.9426409002468383	-0.665989409520189	10.81589237143164	0	0	0
15	1	1	1.8852818004936762	-0.9545469198252585	10.983709821145224	0	0	0
16	1	1	2.827922700740514	-0.9534915003275135	11.317516680378995	0	0	0
17	1	1	3.770563600987352	-1.242049010632583	11.485334130092578	0	0	0
18	1	1	4.713204501234189	-1.240993591134838	11.81914098932635	0	0	0
19	1	1	5.655845401481027	-1.5295511014399075	11.986958439039933	0	0	0
20	1	1	6.598486301727865	-1.5284956819421625	12.320765298273704	0	0	0
21	1	1	7.541127201974703	-1.817053192247232	12.488582747987287	0	0	0
22	1	1	8.483768102221541	-1.815997772749487	12.822389607221059	0	0	0
23	1	1	9.426409002468379	-2.104555283054556	12.990207056934642	0	0	0
24	1	1	10.369049902715217	-2.103499863556811	13.324013916168413	0	0	0
25	1	1	11.311690802962055	-2.3920573738618804	13.491831365881996	0	0	0
26	1	1	-0.4704064300267233	-1.3743411148503626	10.406925323678335	0	0	0
27	1	1	-0.9408128600534463	-2.0718656729087384	9.866391068061745	0	0	0
28	1	1	-1.4112192900801692	-2.888744348917605	10.200197927295516	0	0	0
29	1	1	-1.8816257201068922	-3.5862689069759806	9.659663671678926	0	0	0
30	1	1	-2.352032150133615	-4.403147582984847	9.993470530912697	0	0	0
31	1	1	-2.8224385801603384	-5.100672141043223	9.452936275296107	0	0	0
32	1	1	-3.292845010187061	-5.917550817052089	9.786743134529878	0	0	0
33	1	1	-3.7632514402137844	-6.615075375110465	9.246208878913288	0	0	0
34	1	1	-4.233657870240507	-7.431954051119332	9.58001573814706	0	0	0
35	1	1	-4.70406430026723	-8.129478609177708	9.03948148253047	0	0	0
36	1	1	-5.174470730293954	-8.946357285186574	9.37328834176424	0	0	0
37	1	1	-5.644877160320677	-9.64388184324495	8.83275408614765	0	0	0
38	1	1	-0.4722344702201148	0.03962023551989596	11.22327628993833	0	0	0
39	1	1	-0.9444689404402291	0.15844664372151585	12.096703384691995	0	0	0
40	1	1	-1.4167034106603436	0.9742699002326387	12.430510243925767	0	0	0
41	1	1	-1.8889378808804578	1.0930963084342586	13.303937338679432	0	0	0
42	1	1	-2.361172351100572	1.9089195649453816	13.637744197913204	0	0	0
43	1	1	-2.833406821320686	2.0277459731470016	14.51117129266687	0	0	0
44	1	1	-3.3056412915408004	2.8435692296581245	14.84497815190064	0	0	0
45	1	1	-3.7778757617609147	2.9623956378597445	15.718405246654306	0	0	0
46	1	1	-4.250110231981029	3.7782188943708674	16.052212105888078	0	0	0
47	1	1	-4.722344702201144	3.8970453025724874	16.925639200641744	0	0	0
48	1	1	-5.194579172421259	4.71286855908361	17.259446059875515	0	0	0
49	1	1	-5.666813642641373	4.831694967285229	18.13287315462918	0	0	0
50	1	1	-6.583857551268077	4.437448315903267	18.07287275859076	0	0	0
51	1	1	-7.50090145989478	4.126020898468751	17.823787565693376	0	0	0
52	1	1	-8.417945368521483	3.754593084995813	17.968949024177956	0	0	0
53	1	1	-9.334989277148187	3.4431656675612974	17.719863831280573	0	0	0
54	1	1	-10.252033185774891	3.071737854088359	17.865025289765153	0	0	0
55	1	1	-11.169077094401596	2.7603104366538433	17.61594009686777	0	0	0
56	1	1	-12.0861210030283	2.388882623180905	17.76110155535235	0	0	0
57	1	1	-13.003164911655004	2.0774552057463893	17.51201636245497	0	0	0
58	1	1	-13.920208820281708	1.7060273922734508	17.65717782093955	0	0	0
59	1	1	-14.837252728908412	1.3945999748389353	17.408092628042166	0	0	0
60	1	1	-15.754296637535116	1.0231721613659968	17.553254086526746	0	0	0
61	1	1	-16.67134054616182	0.7117447439314812	17.304168893629363	0	0	0
62	1	1	-5.736782034508007	5.806515313968675	18.34460344493164	0	0	0
63	1	1	-5.806750426374641	6.544869353171264	19.015377428425946	0	0	0
64	1	1	-5.876718818241274	7.494953682676311	18.711331065236806	0	0	0
65	1	1	-5.946687210107908	8.2333077218789	19.382105048731113	0	0	0
66	1	1	-6.016655601974541	9.183392051383947	19.078058685541972	0	0	0
67	1	1	-6.086623993841175	9.921746090586536	19.74883266903628	0	0	0
68	1	1	-6.156592385707809	10.871830420091584	19.44478630584714	0	0	0
69	1	1	-6.226560777574442	11.610184459294173	20.115560289341445	0	0	0
70	1	1	-6.296529169441076	12.56026878879922	19.811513926152305	0	0	0
71	1	1	-6.3664975613077095	13.29862282800181	20.48228790964661	0	0	0
72	1	1	-6.436465953174343	14.248707157506857	20.17824154645747	0	0	0
73	1	1	-6.506434345040977	14.987061196709446	20.849015529951778	0	0	0
74	1	1	-5.152706658126337	4.370116482331185	18.85581112617334	0	0	0
75	1	1	-4.6385996736113	3.6089088027485694	19.25110453241395	0	0	0
76	1	1	-4.124492689096264	3.570639094710114	20.10797642360861	0	0	0
77	1	1	-3.610385704581227	2.8094314151274977	20.50326982984922	0	0	0
78	1	1	-3.0962787200661905	2.771161707089042	21.360141721043878	0	0	0
79	1	1	-2.582171735551154	2.009954027506426	21.75543512728449	0	0	0
80	1	1	-2.0680647510361174	1.9716843194679703	22.612307018479147	0	0	0
81	1	1	-1.5539577665210809	1.2104766398853544	23.007600424719758	0	0	0
82	1	1	-1.0398507820060443	1.1722069318468986	23.864472315914416	0	0	0
83	1	1	-0.5257437974910076	0.4109992522642827	24.259765722155027	0	0	0
84	1	1	-0.011636812975970967	0.372729544225827	25.116637613349685	0	0	0
85	1	1	0.5024701715390657	-0.38847813535678893	25.511931019590296	0	0	0
86	1	1	1.0710308420200976	-0.05295570121898119	26.263039174367222	0	0	0
87	1	1	1.6395915125011296	-0.13793882710451175	27.081279134462598	0	0	0
88	1	1	2.2081521829821615	0.5281862017868844	27.563996660420166	0	0	0
89	1	1	2.7767128534631933	0.44320307590135377	28.382236620515542	0	0	0
90	1	1	3.3452735239442255	1.10932810479275	28.86495414647311	0	0	0
91	1	1	3.9138341944252577	1.0243449789072194	29.683194106568486	0	0	0
92	1	1	4.48239486490629	1.6904700077986154	30.165911632526054	0	0	0
93	1	1	5.050955535387322	1.605486881913085	30.98415159262143	0	0	0
94	1	1	5.619516205868354	2.271611910804481	31.466869118578998	0	0	0
95	1	1	6.1880768763493865	2.1866287849189505	32.285109078674374	0	0	0
96	1	1	6.756637546830419	2.8527538138103465	32.76782660463194	0	0	0
97	1	1	7.325198217311451	2.767770687924816	33.58606656472732	0	0	0
98	1	1	1.0856186887863815	-0.7976059279543141	24.810110347226953	0	0	0
99	1	1	1.6687672060336975	-0.801010653556351	23.99775191976046	0	0	0
100	1	1	2.251915723281013	-1.50623605152173	23.594521284891496	0	0	0
101	1	1	2.8350642405283293	-1.509640777123767	22.782162857425003	0	0	0
102	1	1	3.4182127577756454	-2.2148661750891456	22.37893222255604	0	0	0
103	1	1	4.001361275022961	-2.2182709006911825	21.566573795089546	0	0	0
104	1	1	4.584509792270277	-2.9234962986565614	21.16334316022058	0	0	0
105	1	1	5.167658309517592	-2.926901024258598	20.35098473275409	0	0	0
106	1	1	5.750806826764908	-3.632126422223977	19.947754097885124	0	0	0
107	1	1	6.333955344012224	-3.635531147826014	19.13539567041863	0	0	0
108	1	1	6.917103861259539	-4.340756545791392	18.732165035549666	0	0	0
109	1	1	7.500252378506855	-4.344161271393429	17.919806608083174	0	0	0
110	1	1	-0.13440170275595398	-1.0771618111353705	25.858498488415705	0	0	0
111	1	1	-0.7712735770509739	-1.846863103943972	25.814292882654488	0	0	0
112	1	1	-1.4081454513459937	-2.269996927927166	26.458770952671852	0	0	0
113	1	1	-2.0450173256410134	-3.0396982207357675	26.414565346910635	0	0	0
114	1	1	-2.681889199936033	-3.4628320447189616	27.059043416928	0	0	0
115	1	1	-3.3187610742310527	-4.232533337527563	27.01483781116678	0	0	0
116	1	1	-3.9556329485260724	-4.655667161510757	27.659315881184146	0	0	0
117	1	1	-4.592504822821092	-5.425368454319359	27.61511027542293	0	0	0
118	1	1	-5.229376697116112	-5.848502278302552	28.259588345440292	0	0	0
119	1	1	-5.866248571411131	-6.618203571111154	28.215382739679075	0	0	0
120	1	1	-6.503120445706151	-7.041337395094348	28.85986080969644	0	0	0
121	1	1	-7.139992320001171	-7.81103868790295	28.815655203935222	0	0	0
122	1	1	-6.626079916327317	-8.668522421094904	28.790842129531743	0	0	0
123	1	1	-6.112167512653463	-9.398718580169316	28.34061151015636	0	0	0
124	1	1	-5.598255108979609	-10.153727813647205	28.747864623972934	0	0	0
125	1	1	-5.0843427053057555	-10.883923972721616	28.29763400459755	0	0	0
126	1	1	-4.570430301631902	-11.638933206199505	28.704887118414124	0	0	0
127	1	1	-4.056517897958048	-12.369129365273917	28.25465649903874	0	0	0
128	1	1	-3.5426054942841945	-13.124138598751806	28.661909612855315	0	0	0
129	1	1	-3.028693090610341	-13.854334757826217	28.211678993479932	0	0	0
130	1	1	-2.5147806869364877	-14.609343991304106	28.618932107296505	0	0	0
131	1	1	-2.0008682832626343	-15.339540150378518	28.168701487921123	0	0	0
132	1	1	-1.486955879588781	-16.094549383856407	28.575954601737696	0	0	0
133	1	1	-0.9730434759149275	-16.824745542930817	28.125723982362313	0	0	0
134	1	1	-7.699549540743568	-7.734334395889167	27.990420589839506	0	0	0
135	1	1	-8.259106761485965	-7.255289223378073	27.314098595957258	0	0	0
136	1	1	-8.818663982228362	-7.601478664962696	26.561072310061228	0	0	0
137	1	1	-9.378221202970758	-7.122433492451601	25.88475031617898	0	0	0
138	1	1	-9.937778423713155	-7.468622934036224	25.13172403028295	0	0	0
139	1	1	-10.497335644455552	-6.98957776152513	24.455402036400702	0	0	0
140	1	1	-11.056892865197948	-7.335767203109753	23.70237575050467	0	0	0
141	1	1	-11.616450085940345	-6.856722030598658	23.026053756622424	0	0	0
142	1	1	-12.176007306682742	-7.202911472183281	22.273027470726394	0	0	0
143	1	1	-12.735564527425138	-6.723866299672187	21.596705476844146	0	0	0
144	1	1	-13.295121748167535	-7.07005574125681	20.843679190948116	0	0	0
145	1	1	-13.854678968909932	-6.591010568745715	20.16735719706587	0	0	0
146	1	1	-7.732124103210864	-7.801053960026616	29.621434489175385	0	0	0
147	1	1	-8.324255886420556	-8.195296574655917	30.3242521839748	0	0	0
148	1	1	-8.916387669630248	-7.7837599040450565	31.01708515089788	0	0	0
149	1	1	-9.508519452839941	-8.178002518674358	31.719902845697295	0	0	0
150	1	1	-10.100651236049634	-7.766465848063498	32.412735812620376	0	0	0
151	1	1	-10.692783019259327	-8.1607084626928	33.11555350741979	0	0	0
152	1	1	-11.28491480246902	-7.749171792081939	33.80838647434287	0	0	0
153	1	1	-11.877046585678713	-8.14341440671124	34.51120416914228	0	0	0
154	1	1	-12.469178368888405	-7.7318777361003805	35.20403713606536	0	0	0
155	1	1	-13.061310152098098	-8.126120350729682	35.90685483086477	0	0	0
156	1	1	-13.653441935307791	-7.714583680118822	36.59968779778785	0	0	0
157	1	1	-14.245573718517484	-8.108826294748123	37.302505492587265	0	0	0
158	1	1	-15.202797153596606	-7.957614703671339	37.05581064047366	0	0	0
159	1	1	-16.160020588675728	-7.703314198395376	36.91777242709882	0	0	0
160	1	1	-17.11724402375485	-7.695708545233021	36.628522622647196	0	0	0
161	1	1	-18.074467458833972	-7.441408039957058	36.490484409272355	0	0	0
162	1	1	-19.031690893913094	-7.433802386794703	36.20123460482073	0	0	0
163	1	1	-19.988914328992216	-7.17950188151874	36.06319639144589	0	0	0
164	1	1	-20.946137764071338	-7.171896228356385	35.77394658699427	0	0	0
165	1	1	-21.90336119915046	-6.917595723080422	35.63590837361943	0	0	0
166	1	1	-22.860584634229582	-6.9099900699180665	35.34665856916781	0	0	0
167	1	1	-23.817808069308704	-6.6556895646421035	35.20862035579297	0	0	0
168	1	1	-24.775031504387826	-6.648083911479748	34.919370551341345	0	0	0
169	1	1	-25.732254939466948	-6.393783406203785	34.781332337966504	0	0	0
170	1	1	-14.055639908596646	-7.6727063353467635	38.182121618440306	0	0	0
171	1	1	-13.865706098675808	-7.734823434334268	39.16195150870817	0	0	0
172	1	1	-13.67577228875497	-6.917324407468732	39.705661439574676	0	0	0
173	1	1	-13.485838478834133	-6.9794415064562365	40.68549132984254	0	0	0
174	1	1	-13.295904668913295	-6.161942479590701	41.22920126070905	0	0	0
175	1	1	-13.105970858992457	-6.224059578578205	42.20903115097691	0	0	0
176	1	1	-12.916037049071619	-5.40656055171267	42.75274108184342	0	0	0
177	1	1	-12.726103239150781	-5.468677650700174	43.73257097211128	0	0	0
178	1	1	-12.536169429229943	-4.651178623834639	44.27628090297779	0	0	0
179	1	1	-12.346235619309105	-4.713295722822143	45.256110793245654	0	0	0
180	1	1	-12.156301809388268	-3.8957966959566073	45.79982072411216	0	0	0
181	1	1	-11.96636799946743	-3.957913794944112	46.779650614380024	0	0	0
182	1	1	-14.071257045776361	-9.09096051212282	37.37340032079257	0	0	0
183	1	1	-13.896940373035239	-9.976961108397905	36.94372993432795	0	0	0
184	1	1	-13.722623700294116	-10.792066876467688	37.49619376523802	0	0	0
185	1	1	-13.548307027552994	-11.678067472742773	37.0665233787734	0	0	0
186	1	1	-13.373990354811871	-12.493173240812556	37.61898720968347	0	0	0
187	1	1	-13.199673682070749	-13.379173837087642	37.189316823218846	0	0	0
188	1	1	-13.025357009329626	-14.194279605157424	37.74178065412892	0	0	0
189	1	1	-12.851040336588504	-15.08028020143251	37.312110267664295	0	0	0
190	1	1	-12.676723663847381	-15.895385969502293	37.864574098574366	0	0	0
191	1	1	-12.502406991106259	-16.781386565777378	37.434903712109744	0	0	0
192	1	1	-12.328090318365136	-17.596492333847163	37.987367543019815	0	0	0
193	1	1	-12.153773645624014	-18.48249293012225	37.55769715655519	0	0	0

Bonds

1	1	1	2
2	1	2	3
3	1	3	4
4	1	4	5
5	1	5	6
6	1	6	7
7	1	7	8
8	1	8	9
9	1	9	10
10	1	10	11
11	1	11	12
12	1	12	13
13	1	13	14
14	1	13	26
15	1	13	38
16	1	14	15
17	1	15	16
18	1	16	17
19	1	17	18
20	1	18	19
21	1	19	20
22	1	20	21
23	1	21	22
24	1	22	23
25	1	23	24
26	1	24	25
27	1	26	27
28	1	27	28
29	1	28	29
30	1	29	30
31	1	30	31
32	1	31	32
33	1	32	33
34	1	33	34
35	1	34	35
36	1	35	36
37	1	36	37
38	1	38	39
39	1	39	40
40	1	40	41
41	1	41	42
42	1	42	43
43	1	43	44
44	1	44	45
45	1	45	46
46	1	46	47
47	1	47	48
48	1	48	49
49	1	49	50
50	1	49	62
51	1	49	74
52	1	50	51
53	1	51	52
54	1	52	53
55	1	53	54
56	1	54	55
57	1	55	56
58	1	56	57
59	1	57	58
60	1	58	59
61	1	59	60
62	1	60	61
63	1	62	63
64	1	63	64
65	1	64	65
66	1	65	66
67	1	66	67
68	1	67	68
69	1	68	69
70	1	69	70
71	1	70	71
72	1	71	72
73	1	72	73
74	1	74	75
75	1	75	76
76	1	76	77
77	1	77	78
78	1	78	79
79	1	79	80
80	1	80	81
81	1	81	82
82	1	82	83
83	1	83	84
84	1	84	85
85	1	85	86
86	1	85	98
87	1	85	110
88	1	86	87
89	1	87	88
90	1	88	89
91	1	89	90
92	1	90	91
93	1	91	92
94	1	92	93
95	1	93	94
96	1	94	95
97	1	95	96
98	1	96	97
99	1	98	99
100	1	99	100
101	1	100	101
102	1	101	102
103	1	102	103
104	1	103	104
105	1	104	105
106	1	105	106
107	1	106	107
108	1	107	108
109	1	108	109
110	1	110	111
111	1	111	112
112	1	112	113
113	1	113	114
114	1	114	115
115	1	115	116
116	1	116	117
117	1	117	118
118	1	118	119
119	1	119	120
120	1	120	121
121	1	121	122
122	1	121	134
123	1	121	146
124	1	122	123
125	1	123	124
126	1	124	125
127	1	125	126
128	1	126	127
129	1	127	128
130	1	128	129
131	1	129	130
132	1	130	131
133	1	131	132
134	1	132	133
135	1	134	135
136	1	135	136
137	1	136	137
138	1	137	138
139	1	138	139
140	1	139	140
141	1	140	141
142	1	141	142
143	1	142	143
144	1	143	144
145	1	144	145
146	1	146	147
147	1	147	148
148	1	148	149
149	1	149	150
150	1	150	151
151	1	151	152
152	1	152	153
153	1	153	154
154	1	154	155
155	1	155	156
156	1	156	157
157	1	157	158
158	1	157	170
159	1	157	182
160	1	158	159
161	1	159	160
162	1	160	161
163	1	161	162
164	1	162	163
165	1	163	164
166	1	164	165
167	1	165	166
168	1	166	167
169	1	167	168
170	1	168	169
171	1	170	171
172	1	171	172
173	1	172	173
174	1	173	174
175	1	174	175
176	1	175	176
177	1	176	177
178	1	177	178
179	1	178	179
180	1	179	180
181	1	180	181
182	1	182	183
183	1	183	184
184	1	184	185
185	1	185	186
186	1	186	187
187	1	187	188
188	1	188	189
189	1	189	190
190	1	190	191
191	1	191	192
192	1	192	193

Angles

1	1	1	2	3
2	1	2	3	4
3	1	3	4	5
4	1	4	5	6
5	1	5	6	7
6	1	6	7	8
7	1	7	8	9
8	1	8	9	10
9	1	9	10	11
10	1	10	11	12
11	1	11	12	13
12	1	12	13	14
13	1	12	13	26
14	1	12	13	38
15	1	13	14	15
16	1	13	26	27
17	1	13	38	39
18	1	14	13	26
19	1	14	13	38
20	1	14	15	16
21	1	15	16	17
22	1	16	17	18
23	1	17	18	19
24	1	18	19	20
25	1	19	20	21
26	1	20	21	22
27	1	21	22	23
28	1	22	23	24
29	1	23	24	25
30	1	26	13	38
31	1	26	27	28
32	1	27	28	29
33	1	28	29	30
34	1	29	30	31
35	1	30	31	32
36	1	31	32	33
37	1	32	33	34
38	1	33	34	35
39	1	34	35	36
40	1	35	36	37
41	1	38	39	40
42	1	39	40	41
43	1	40	41	42
44	1	41	42	43
45	1	42	43	44
46	1	43	44	45
47	1	44	45	46
48	1	45	46	47
49	1	46	47	48
50	1	47	48	49
51	1	48	49	50
52	1	48	49	62
53	1	48	49	74
54	1	49	50	51
55	1	49	62	63
56	1	49	74	75
57	1	50	49	62
58	1	50	49	74
59	1	50	51	52
60	1	51	52	53
61	1	52	53	54
62	1	53	54	55
63	1	54	55	56
64	1	55	56	57
65	1	56	57	58
66	1	57	58	59
67	1	58	59	60
68	1	59	60	61
69	1	62	49	74
70	1	62	63	64
71	1	63	64	65
72	1	64	65	66
73	1	65	66	67
74	1	66	67	68
75	1	67	68	69
76	1	68	69	70
77	1	69	70	71
78	1	70	71	72
79	1	71	72	73
80	1	74	75	76
81	1	75	76	77
82	1	76	77	78
83	1	77	78	79
84	1	78	79	80
85	1	79	80	81
86	1	80	81	82
87	1	81	82	83
88	1	82	83	84
89	1	83	84	85
90	1	84	85	86
91	1	84	85	98
92	1	84	85	110
93	1	85	86	87
94	1	85	98	99
95	1	85	110	111
96	1	86	85	98
97	1	86	85	110
98	1	86	87	88
99	1	87	88	89
100	1	88	89	90
101	1	89	90	91
102	1	90	91	92
103	1	91	92	93
104	1	92	93	94
105	1	93	94	95
106	1	94	95	96
107	1	95	96	97
108	1	98	85	110
109	1	98	99	100
110	1	99	100	101
111	1	100	101	102
112	1	101	102	103
113	1	102	103	104
114	1	103	104	105
115	1	104	105	106
116	1	105	106	107
117	1	106	107	108
118	1	107	108	109
119	1	110	111	112
120	1	111	112	113
121	1	112	113	114
122	1	113	114	115
123	1	114	115	116
124	1	115	116	117
125	1	116	117	118
126	1	117	118	119
127	1	118	119	120
128	1	119	120	121
129	1	120	121	122
130	1	120	121	134
131	1	120	121	146
132	1	121	122	123
133	1	121	134	135
134	1	121	146	147
135	1	122	121	134
136	1	122	121	146
137	1	122	123	124
138	1	123	124	125
139	1	124	125	126
140	1	125	126	127
141	1	126	127	128
142	1	127	128	129
143	1	128	129	130
144	1	129	130	131
145	1	130	131	132
146	1	131	132	133
147	1	134	121	146
148	1	134	135	136
149	1	135	136	137
150	1	136	137	138
151	1	137	138	139
152	1	138	139	140
153	1	139	140	141
154	1	140	141	142
155	1	141	142	143
156	1	142	143	144
157	1	143	144	145
158	1	146	147	148
159	1	147	148	149
160	1	148	149	150
161	1	149	150	151
162	1	150	151	152
163	1	151	152	153
164	1	152	153	154
165	1	153	154	155
166	1	154	155	156
167	1	155	156	157
168	1	156	157	158
169	1	156	157	170
170	1	156	157	182
171	1	157	158	159
172	1	157	170	171
173	1	157	182	183
174	1	158	157	170
175	1	158	157	182
176	1	158	159	160
177	1	159	160	161
178	1	160	161	162
179	1	161	162	163
180	1	162	163	164
181	1	163	164	165
182	1	164	165	166
183	1	165	166	167
184	1	166	167	168
185	1	167	168	169
186	1	170	157	182
187	1	170	171	172
188	1	171	172	173
189	1	172	173	174
190	1	173	174	175
191	1	174	175	176
192	1	175	176	177
193	1	176	177	178
194	1	177	178	179
195	1	178	179	180
196	1	179	180	181
197	1	182	183	184
198	1	183	184	185
199	1	184	185	186
200	1	185	186	187
201	1	186	187	188
202	1	187	188	189
203	1	188	189	190
204	1	189	190	191
205	1	190	191	192
206	1	191	192	193
