ITEM: TIMESTEP
0
ITEM: NUMBER OF ATOMS
201
ITEM: BOX BOUNDS pp pp pp
-1.0000000000000000e+03 1.0000000000000000e+03
-1.0000000000000000e+03 1.0000000000000000e+03
-1.0000000000000000e+03 1.0000000000000000e+03
ITEM: ATOMS id x y z ix iy iz
1 0.00000 0.00000 0.00000 0 0 0
2 0.00000 0.00000 1.00000 0 0 0
3 0.00000 -0.50000 1.86603 0 0 0
4 0.00000 0.00000 2.73205 0 0 0
5 0.00000 -0.50000 3.59808 0 0 0
6 0.00000 0.00000 4.46410 0 0 0
7 0.00000 -0.50000 5.33013 0 0 0
8 0.00000 0.00000 6.19615 0 0 0
9 0.00000 -0.50000 7.06218 0 0 0
10 0.00000 0.00000 7.92820 0 0 0
11 0.00000 -0.50000 8.79423 0 0 0
12 0.00000 0.00000 9.66025 0 0 0
13 0.00000 -0.50000 10.52628 0 0 0
14 0.00000 0.00000 11.39230 0 0 0
15 0.00000 -0.50000 12.25833 0 0 0
16 0.00000 0.00000 13.12436 0 0 0
17 0.00000 -0.50000 13.99038 0 0 0
18 0.00000 0.00000 14.85641 0 0 0
19 0.00000 -0.50000 15.72243 0 0 0
20 0.00000 0.00000 16.58846 0 0 0
21 0.00000 -0.50000 17.45448 0 0 0
22 0.56969 -1.31730 17.36806 0 0 0
23 1.13938 -1.98190 16.88456 0 0 0
24 1.70907 -2.73291 17.21837 0 0 0
25 2.27876 -3.39751 16.73487 0 0 0
26 2.84845 -4.14853 17.06868 0 0 0
27 3.41814 -4.81312 16.58518 0 0 0
28 3.98783 -5.56414 16.91899 0 0 0
29 4.55751 -6.22873 16.43549 0 0 0
30 5.12720 -6.97975 16.76930 0 0 0
31 5.69689 -7.64434 16.28580 0 0 0
32 6.26658 -8.39536 16.61961 0 0 0
33 6.83627 -9.05995 16.13611 0 0 0
34 7.40596 -9.81097 16.46992 0 0 0
35 7.97565 -10.47556 15.98642 0 0 0
36 8.54534 -11.22658 16.32023 0 0 0
37 9.11503 -11.89118 15.83673 0 0 0
38 9.68472 -12.64219 16.17054 0 0 0
39 10.25441 -13.30679 15.68704 0 0 0
40 10.82410 -14.05780 16.02085 0 0 0
41 11.39379 -14.72240 15.53735 0 0 0
42 -0.93524 -0.76897 17.68464 0 0 0
43 -1.87049 -1.11698 17.74948 0 0 0
44 -2.80573 -1.23484 18.08328 0 0 0
45 -3.74098 -1.58285 18.14812 0 0 0
46 -4.67622 -1.70071 18.48193 0 0 0
47 -5.61147 -2.04872 18.54676 0 0 0
48 -6.54671 -2.16658 18.88057 0 0 0
49 -7.48196 -2.51460 18.94541 0 0 0
50 -8.41720 -2.63245 19.27921 0 0 0
51 -9.35245 -2.98047 19.34405 0 0 0
52 -10.28769 -3.09832 19.67786 0 0 0
53 -11.22294 -3.44634 19.74269 0 0 0
54 -12.15818 -3.56419 20.07650 0 0 0
55 -13.09343 -3.91221 20.14134 0 0 0
56 -14.02867 -4.03006 20.47514 0 0 0
57 -14.96392 -4.37808 20.53998 0 0 0
58 -15.89916 -4.49593 20.87379 0 0 0
59 -16.83441 -4.84395 20.93862 0 0 0
60 -17.76965 -4.96180 21.27243 0 0 0
61 -18.70490 -5.30982 21.33727 0 0 0
62 0.36556 0.08556 18.17800 0 0 0
63 0.73111 0.23092 19.09738 0 0 0
64 1.09667 1.09979 19.43118 0 0 0
65 1.46222 1.24514 20.35055 0 0 0
66 1.82778 2.11402 20.68436 0 0 0
67 2.19333 2.25937 21.60373 0 0 0
68 2.55889 3.12824 21.93754 0 0 0
69 2.92444 3.27359 22.85691 0 0 0
70 3.29000 4.14247 23.19071 0 0 0
71 3.65555 4.28782 24.11008 0 0 0
72 4.02111 5.15669 24.44389 0 0 0
73 4.38667 5.30205 25.36326 0 0 0
74 4.75222 6.17092 25.69707 0 0 0
75 5.11778 6.31627 26.61644 0 0 0
76 5.48333 7.18515 26.95025 0 0 0
77 5.84889 7.33050 27.86962 0 0 0
78 6.21444 8.19937 28.20342 0 0 0
79 6.58000 8.34472 29.12279 0 0 0
80 6.94555 9.21360 29.45660 0 0 0
81 7.31111 9.35895 30.37597 0 0 0
82 6.70659 8.93004 31.04723 0 0 0
83 6.10207 8.22296 31.41410 0 0 0
84 5.49754 8.18714 32.20989 0 0 0
85 4.89302 7.48006 32.57676 0 0 0
86 4.28850 7.44425 33.37254 0 0 0
87 3.68398 6.73717 33.73941 0 0 0
88 3.07946 6.70135 34.53520 0 0 0
89 2.47494 5.99427 34.90207 0 0 0
90 1.87042 5.95845 35.69785 0 0 0
91 1.26589 5.25138 36.06472 0 0 0
92 0.66137 5.21556 36.86051 0 0 0
93 0.05685 4.50848 37.22738 0 0 0
94 -0.54767 4.47266 38.02316 0 0 0
95 -1.15219 3.76559 38.39003 0 0 0
96 -1.75671 3.72977 39.18582 0 0 0
97 -2.36123 3.02269 39.55269 0 0 0
98 -2.96576 2.98687 40.34847 0 0 0
99 -3.57028 2.27979 40.71534 0 0 0
100 -4.17480 2.24398 41.51113 0 0 0
101 -4.77932 1.53690 41.87800 0 0 0
102 7.37041 10.34001 30.56037 0 0 0
103 7.42971 11.09744 31.21059 0 0 0
104 7.48902 12.03926 30.87975 0 0 0
105 7.54832 12.79668 31.52998 0 0 0
106 7.60762 13.73851 31.19914 0 0 0
107 7.66693 14.49593 31.84936 0 0 0
108 7.72623 15.43775 31.51852 0 0 0
109 7.78553 16.19518 32.16875 0 0 0
110 7.84483 17.13700 31.83791 0 0 0
111 7.90414 17.89443 32.48813 0 0 0
112 7.96344 18.83625 32.15730 0 0 0
113 8.02274 19.59367 32.80752 0 0 0
114 8.08205 20.53550 32.47668 0 0 0
115 8.14135 21.29292 33.12690 0 0 0
116 8.20065 22.23474 32.79607 0 0 0
117 8.25995 22.99217 33.44629 0 0 0
118 8.31926 23.93399 33.11545 0 0 0
119 8.37856 24.69142 33.76567 0 0 0
120 8.43786 25.63324 33.43484 0 0 0
121 8.49717 26.39066 34.08506 0 0 0
122 8.22240 8.95236 30.44099 0 0 0
123 9.13370 8.56773 30.29400 0 0 0
124 10.04499 8.24812 30.55361 0 0 0
125 10.95628 7.86349 30.40662 0 0 0
126 11.86758 7.54388 30.66623 0 0 0
127 12.77887 7.15925 30.51924 0 0 0
128 13.69016 6.83964 30.77885 0 0 0
129 14.60146 6.45502 30.63186 0 0 0
130 15.51275 6.13541 30.89146 0 0 0
131 16.42404 5.75078 30.74448 0 0 0
132 17.33534 5.43117 31.00408 0 0 0
133 18.24663 5.04654 30.85709 0 0 0
134 19.15792 4.72693 31.11670 0 0 0
135 20.06922 4.34230 30.96971 0 0 0
136 20.98051 4.02269 31.22932 0 0 0
137 21.89180 3.63807 31.08233 0 0 0
138 22.80310 3.31846 31.34193 0 0 0
139 23.71439 2.93383 31.19495 0 0 0
140 24.62568 2.61422 31.45455 0 0 0
141 25.53698 2.22959 31.30757 0 0 0
142 25.46059 1.38050 30.78488 0 0 0
143 25.38421 0.90650 29.90767 0 0 0
144 25.30783 -0.09018 29.87955 0 0 0
145 25.23144 -0.56417 29.00234 0 0 0
146 25.15506 -1.56085 28.97423 0 0 0
147 25.07868 -2.03485 28.09702 0 0 0
148 25.00229 -3.03153 28.06890 0 0 0
149 24.92591 -3.50552 27.19169 0 0 0
150 24.84952 -4.50220 27.16358 0 0 0
151 24.77314 -4.97620 26.28637 0 0 0
152 24.69676 -5.97288 26.25826 0 0 0
153 24.62037 -6.44687 25.38105 0 0 0
154 24.54399 -7.44355 25.35293 0 0 0
155 24.46761 -7.91755 24.47572 0 0 0
156 24.39122 -8.91423 24.44761 0 0 0
157 24.31484 -9.38822 23.57040 0 0 0
158 24.23846 -10.38490 23.54228 0 0 0
159 24.16207 -10.85890 22.66507 0 0 0
160 24.08569 -11.85558 22.63696 0 0 0
161 24.00931 -12.32957 21.75975 0 0 0
162 25.96544 2.03932 32.19086 0 0 0
163 26.39390 1.43289 32.86069 0 0 0
164 26.82237 1.70976 33.72078 0 0 0
165 27.25083 1.10333 34.39060 0 0 0
166 27.67930 1.38020 35.25070 0 0 0
167 28.10776 0.77377 35.92052 0 0 0
168 28.53622 1.05064 36.78062 0 0 0
169 28.96469 0.44421 37.45044 0 0 0
170 29.39315 0.72108 38.31053 0 0 0
171 29.82161 0.11465 38.98036 0 0 0
172 30.25008 0.39152 39.84045 0 0 0
173 30.67854 -0.21491 40.51027 0 0 0
174 31.10701 0.06196 41.37037 0 0 0
175 31.53547 -0.54447 42.04019 0 0 0
176 31.96393 -0.26760 42.90028 0 0 0
177 32.39240 -0.87403 43.57011 0 0 0
178 32.82086 -0.59716 44.43020 0 0 0
179 33.24932 -1.20359 45.10002 0 0 0
180 33.67779 -0.92672 45.96012 0 0 0
181 34.10625 -1.53315 46.62994 0 0 0
182 26.09748 2.88378 30.79976 0 0 0
183 26.65799 3.70423 30.68708 0 0 0
184 27.21850 4.01687 29.92022 0 0 0
185 27.77901 4.83732 29.80754 0 0 0
186 28.33951 5.14997 29.04067 0 0 0
187 28.90002 5.97041 28.92800 0 0 0
188 29.46053 6.28306 28.16113 0 0 0
189 30.02104 7.10351 28.04845 0 0 0
190 30.58154 7.41615 27.28159 0 0 0
191 31.14205 8.23660 27.16891 0 0 0
192 31.70256 8.54924 26.40204 0 0 0
193 32.26307 9.36969 26.28937 0 0 0
194 32.82357 9.68233 25.52250 0 0 0
195 33.38408 10.50278 25.40982 0 0 0
196 33.94459 10.81543 24.64296 0 0 0
197 34.50510 11.63587 24.53028 0 0 0
198 35.06561 11.94852 23.76341 0 0 0
199 35.62611 12.76897 23.65074 0 0 0
200 36.18662 13.08161 22.88387 0 0 0
201 36.74713 13.90206 22.77119 0 0 0
ITEM: TIMESTEP
1000
ITEM: NUMBER OF ATOMS
201
ITEM: BOX BOUNDS pp pp pp
-1.0000000000000000e+03 1.0000000000000000e+03
-1.0000000000000000e+03 1.0000000000000000e+03
-1.0000000000000000e+03 1.0000000000000000e+03
ITEM: ATOMS id x y z ix iy iz
1 -3.25944 -0.85262 3.33137 0 0 0
2 -2.94173 -0.58249 4.20446 0 0 0
3 -2.24874 -0.61291 4.99779 0 0 0
4 -1.66879 -0.60945 5.85488 0 0 0
5 -1.13456 -0.52030 6.67424 0 0 0
6 -0.39451 -1.16814 6.66244 0 0 0
7 -1.03709 -1.66947 7.20303 0 0 0
8 -0.80455 -1.18249 8.03043 0 0 0
9 -0.40096 -1.15385 9.00198 0 0 0
10 0.24006 -1.14085 9.75715 0 0 0
11 -0.15856 -0.29472 9.95361 0 0 0
12 0.07503 -0.47058 10.91699 0 0 0
13 0.73518 -0.85256 11.57314 0 0 0
14 1.04407 -0.69543 12.48573 0 0 0
15 0.30334 -0.31838 13.04781 0 0 0
16 0.09815 0.46566 13.63235 0 0 0
17 0.08017 -0.16513 14.52775 0 0 0
18 -0.03859 0.18791 15.41064 0 0 0
19 -0.13457 -0.11373 16.39319 0 0 0
20 -0.52023 -0.16591 17.30815 0 0 0
21 -0.41804 -0.68692 18.16334 0 0 0
22 0.23535 -1.16116 17.73228 0 0 0
23 0.92562 -1.29688 17.07182 0 0 0
24 1.34759 -2.11489 16.75468 0 0 0
25 2.30469 -2.17880 16.48861 0 0 0
26 2.41225 -2.96332 17.11128 0 0 0
27 2.71562 -3.65990 16.53040 0 0 0
28 3.40566 -4.30945 16.61664 0 0 0
29 4.35931 -4.50910 16.37695 0 0 0
30 4.90125 -5.37082 16.38067 0 0 0
31 5.75407 -5.05416 16.24703 0 0 0
32 5.83150 -5.94902 16.03259 0 0 0
33 6.13526 -6.82143 15.91786 0 0 0
34 6.73942 -7.59177 15.79911 0 0 0
35 5.79225 -7.91057 15.79099 0 0 0
36 6.05666 -8.45653 15.05161 0 0 0
37 6.47681 -8.71913 15.94296 0 0 0
38 6.71141 -9.52785 16.36458 0 0 0
39 6.62306 -10.39865 16.82937 0 0 0
40 6.05373 -10.70856 16.17068 0 0 0
41 5.81043 -10.57736 15.24062 0 0 0
42 -1.06115 -1.32416 18.63475 0 0 0
43 -1.95856 -1.64224 18.78621 0 0 0
44 -2.65711 -2.22840 19.38060 0 0 0
45 -3.05570 -2.97730 19.89302 0 0 0
46 -3.89698 -3.46361 20.12338 0 0 0
47 -4.75560 -3.93801 19.82910 0 0 0
48 -5.52956 -4.24746 19.47680 0 0 0
49 -5.79785 -3.50590 18.96315 0 0 0
50 -6.55544 -3.18343 19.38137 0 0 0
51 -7.49193 -3.08692 19.57520 0 0 0
52 -8.34215 -3.52184 19.86185 0 0 0
53 -9.32536 -3.49726 19.99159 0 0 0
54 -10.18412 -3.43192 19.54303 0 0 0
55 -10.80532 -2.71167 19.46185 0 0 0
56 -11.73416 -2.75791 19.80689 0 0 0
57 -12.55776 -3.29472 19.51251 0 0 0
58 -12.76338 -2.94900 18.60748 0 0 0
59 -13.60512 -3.07875 18.20392 0 0 0
60 -13.68136 -2.61386 17.33517 0 0 0
61 -13.85411 -1.79382 17.90543 0 0 0
62 0.07328 -0.54934 18.96147 0 0 0
63 0.88369 -0.32913 19.48448 0 0 0
64 1.16356 -0.06826 20.39584 0 0 0
65 1.81514 0.29148 21.00321 0 0 0
66 1.77775 0.91297 21.79522 0 0 0
67 1.92969 1.17603 22.74773 0 0 0
68 1.90879 1.86797 23.57057 0 0 0
69 2.51034 2.22580 24.34509 0 0 0
70 3.24452 2.80020 24.76101 0 0 0
71 3.77721 3.36248 25.37160 0 0 0
72 4.41208 4.07304 25.68759 0 0 0
73 4.39791 4.14071 26.68447 0 0 0
74 4.49616 5.00581 27.10164 0 0 0
75 5.28957 5.29229 27.68980 0 0 0
76 5.83581 6.09391 27.67221 0 0 0
77 6.61716 6.65384 27.48094 0 0 0
78 6.73749 6.95807 28.39685 0 0 0
79 7.14912 7.61144 29.08718 0 0 0
80 7.90977 7.84148 29.64462 0 0 0
81 7.81834 8.61043 30.28856 0 0 0
82 6.95059 8.28706 30.54891 0 0 0
83 6.34864 7.64189 30.80301 0 0 0
84 5.43149 7.59466 31.28833 0 0 0
85 4.79253 7.51071 32.00193 0 0 0
86 4.08719 6.96420 31.44121 0 0 0
87 3.43178 6.51984 32.12757 0 0 0
88 3.25376 5.81048 32.70566 0 0 0
89 3.03601 5.03336 33.29871 0 0 0
90 3.07302 5.25032 34.21680 0 0 0
91 2.12894 5.03945 34.50259 0 0 0
92 1.52911 5.79061 34.82477 0 0 0
93 1.24939 5.72452 35.71709 0 0 0
94 1.23065 4.91249 36.22484 0 0 0
95 1.93840 4.69180 36.84797 0 0 0
96 1.52666 3.87478 36.39917 0 0 0
97 0.71945 3.39663 36.76651 0 0 0
98 -0.35790 3.16928 36.90812 0 0 0
99 -1.28282 3.09409 37.29743 0 0 0
100 -1.03253 2.33820 36.71656 0 0 0
101 -0.36492 1.63018 36.96521 0 0 0
102 7.98445 9.57703 30.39969 0 0 0
103 7.83180 10.39354 30.91219 0 0 0
104 7.38043 11.33540 30.98597 0 0 0
105 7.14788 12.30112 31.20294 0 0 0
106 6.98820 13.22159 30.93798 0 0 0
107 6.62979 13.91646 31.50377 0 0 0
108 6.21096 14.79297 31.66273 0 0 0
109 5.83862 15.58110 32.24748 0 0 0
110 5.45477 16.40087 32.48751 0 0 0
111 5.33733 17.18769 31.95573 0 0 0
112 5.90663 17.78563 31.50296 0 0 0
113 6.09445 18.70540 31.05915 0 0 0
114 6.32418 19.47537 30.45407 0 0 0
115 6.03302 20.09461 31.18817 0 0 0
116 6.60523 20.90209 31.67896 0 0 0
117 6.44877 21.28885 32.59137 0 0 0
118 6.93696 22.23792 32.72894 0 0 0
119 7.25532 23.07398 32.42402 0 0 0
120 7.99854 23.60833 32.15206 0 0 0
121 8.74677 24.15578 31.87240 0 0 0
122 8.88314 8.48199 30.29809 0 0 0
123 9.55580 7.90657 30.64347 0 0 0
124 10.27445 7.26384 30.44111 0 0 0
125 11.17428 7.18815 30.07600 0 0 0
126 12.03390 6.75003 29.83783 0 0 0
127 12.95731 6.74506 29.51177 0 0 0
128 13.88826 7.00919 29.30511 0 0 0
129 14.88010 6.90170 29.64922 0 0 0
130 14.98360 5.87756 29.47332 0 0 0
131 15.39074 5.02191 29.81715 0 0 0
132 16.30648 4.47601 29.58685 0 0 0
133 17.15025 4.05806 29.47462 0 0 0
134 17.95214 3.71274 30.04543 0 0 0
135 18.88393 3.42914 30.09974 0 0 0
136 19.73483 3.19811 30.52564 0 0 0
137 20.57085 3.69399 30.25726 0 0 0
138 21.26196 3.52723 30.89066 0 0 0
139 22.21496 3.74305 30.64811 0 0 0
140 23.04411 3.24822 30.56099 0 0 0
141 23.86559 2.82795 30.41656 0 0 0
142 23.54859 2.12995 29.81522 0 0 0
143 24.26131 1.56564 29.90794 0 0 0
144 25.00725 0.93882 29.86154 0 0 0
145 25.63583 0.25018 30.30774 0 0 0
146 25.23361 -0.50489 30.74581 0 0 0
147 24.66777 -1.18471 31.17537 0 0 0
148 24.91131 -1.96225 30.62449 0 0 0
149 24.61943 -2.82252 30.27340 0 0 0
150 25.11296 -3.69678 30.04440 0 0 0
151 25.10750 -4.15916 29.12294 0 0 0
152 24.54858 -4.26098 28.25246 0 0 0
153 23.68974 -4.39504 27.81938 0 0 0
154 22.94356 -5.05220 27.65505 0 0 0
155 22.79190 -5.76471 26.94666 0 0 0
156 22.86138 -6.67379 26.71191 0 0 0
157 22.84897 -7.07073 25.84035 0 0 0
158 23.37826 -6.85969 25.00242 0 0 0
159 23.52581 -6.06038 24.49718 0 0 0
160 24.19317 -5.33874 24.73920 0 0 0
161 23.76499 -5.03351 23.91756 0 0 0
162 23.82505 2.39731 31.31097 0 0 0
163 24.00117 1.70162 31.94886 0 0 0
164 24.41768 1.98985 32.74970 0 0 0
165 25.26316 2.29705 33.20123 0 0 0
166 25.12296 1.84775 34.02596 0 0 0
167 25.79314 1.65006 34.73314 0 0 0
168 26.42890 1.76722 35.47539 0 0 0
169 26.74870 1.86984 36.44635 0 0 0
170 27.20773 1.70296 37.33446 0 0 0
171 28.02809 1.49300 36.92350 0 0 0
172 28.91281 1.32492 37.25580 0 0 0
173 29.68664 1.09527 37.74930 0 0 0
174 30.01937 1.56738 38.52236 0 0 0
175 30.82833 1.68551 39.07027 0 0 0
176 30.88242 1.40784 40.02633 0 0 0
177 31.24894 1.65556 40.91831 0 0 0
178 31.23898 2.53384 41.43949 0 0 0
179 30.71350 1.79437 41.75317 0 0 0
180 29.96936 1.60675 41.24170 0 0 0
181 29.26726 1.23080 41.78542 0 0 0
182 23.91438 3.55080 29.74158 0 0 0
183 24.58946 3.89522 29.14405 0 0 0
184 25.26730 4.44029 28.73893 0 0 0
185 25.61425 5.19384 28.22412 0 0 0
186 26.34014 5.72182 27.86574 0 0 0
187 27.17167 6.18579 28.26223 0 0 0
188 28.01871 6.47995 28.74275 0 0 0
189 28.81434 7.10770 28.70323 0 0 0
190 29.72551 7.27189 29.21076 0 0 0
191 30.53993 7.71871 29.54505 0 0 0
192 31.29617 7.89425 30.11416 0 0 0
193 32.14836 8.51530 30.45504 0 0 0
194 32.99232 9.04105 30.25471 0 0 0
195 32.53162 9.02806 29.43060 0 0 0
196 32.65540 8.94514 28.42194 0 0 0
197 33.26777 8.48487 27.74562 0 0 0
198 33.73949 9.08408 27.05895 0 0 0
199 34.36596 9.25026 26.36770 0 0 0
200 34.74038 9.52810 27.19617 0 0 0
201 34.84444 10.25055 27.90055 0 0 0
ITEM: TIMESTEP
2000
ITEM: NUMBER OF ATOMS
201
ITEM: BOX BOUNDS pp pp pp
-1.0000000000000000e+03 1.0000000000000000e+03
-1.0000000000000000e+03 1.0000000000000000e+03
-1.0000000000000000e+03 1.0000000000000000e+03
ITEM: ATOMS id x y z ix iy iz
1 -3.46627 -0.25769 6.12789 0 0 0
2 -3.28558 -1.01202 6.76492 0 0 0
3 -2.94710 -0.78457 7.67286 0 0 0
4 -2.11539 -0.82109 8.15430 0 0 0
5 -1.55433 -0.44321 8.91757 0 0 0
6 -1.74794 -0.74553 9.88345 0 0 0
7 -1.06121 -1.37799 9.80714 0 0 0
8 -0.22043 -1.47846 10.39210 0 0 0
9 -0.49472 -1.27295 11.27627 0 0 0
10 -1.24507 -1.36142 12.05938 0 0 0
11 -1.83659 -1.08805 12.81846 0 0 0
12 -1.64076 -1.21425 13.86450 0 0 0
13 -1.02402 -0.86775 14.58355 0 0 0
14 -1.25779 -0.88628 15.53729 0 0 0
15 -1.73219 -1.13362 16.43388 0 0 0
16 -1.30304 -0.56878 17.10788 0 0 0
17 -0.55279 0.01766 17.36497 0 0 0
18 0.43405 0.22706 17.54668 0 0 0
19 0.39804 -0.44233 18.20012 0 0 0
20 -0.22575 -0.94714 18.77990 0 0 0
21 -0.67894 -0.83616 19.69691 0 0 0
22 -0.35802 -1.81703 19.76318 0 0 0
23 -0.15303 -2.75528 19.98638 0 0 0
24 0.34385 -3.48976 20.23375 0 0 0
25 1.12697 -3.56816 19.64442 0 0 0
26 1.33737 -4.52440 19.22227 0 0 0
27 2.03833 -4.52205 18.41566 0 0 0
28 2.82813 -4.12390 18.04974 0 0 0
29 3.66672 -3.52689 17.96993 0 0 0
30 4.52200 -3.25532 17.61846 0 0 0
31 4.35029 -4.18391 17.19477 0 0 0
32 4.83418 -4.54920 16.39805 0 0 0
33 5.00911 -4.79345 15.45098 0 0 0
34 5.81309 -5.24276 15.80802 0 0 0
35 6.11570 -6.17099 15.90847 0 0 0
36 6.28477 -6.86156 15.21883 0 0 0
37 7.04890 -6.86456 14.51295 0 0 0
38 6.83495 -7.21076 13.65988 0 0 0
39 5.99039 -7.48226 13.89572 0 0 0
40 5.04104 -7.24223 14.29036 0 0 0
41 4.58152 -7.11718 15.16278 0 0 0
42 -1.79930 -0.84079 19.71679 0 0 0
43 -1.43622 -1.49254 19.11463 0 0 0
44 -0.83457 -1.64778 18.30103 0 0 0
45 -0.66507 -2.60539 18.68786 0 0 0
46 -0.89855 -3.26798 19.39043 0 0 0
47 -1.77686 -3.42226 19.49867 0 0 0
48 -2.68392 -3.81100 19.44360 0 0 0
49 -3.15550 -3.96186 18.63022 0 0 0
50 -4.00822 -3.92164 18.20318 0 0 0
51 -4.81534 -4.35222 18.71184 0 0 0
52 -5.58917 -4.59940 18.02194 0 0 0
53 -6.37854 -4.71239 18.50999 0 0 0
54 -6.99291 -4.01216 18.68861 0 0 0
55 -7.26363 -3.73527 17.76238 0 0 0
56 -8.10832 -3.31036 17.76266 0 0 0
57 -9.04378 -3.25913 17.58467 0 0 0
58 -9.59643 -3.03673 18.37704 0 0 0
59 -10.21194 -2.32994 18.40982 0 0 0
60 -10.68855 -1.72662 19.09770 0 0 0
61 -10.80055 -1.38444 19.99478 0 0 0
62 -0.52077 0.07150 20.03915 0 0 0
63 -0.09920 0.70773 20.73859 0 0 0
64 0.39738 0.74966 21.55866 0 0 0
65 0.53545 1.53194 22.16132 0 0 0
66 1.17330 0.84563 22.27983 0 0 0
67 1.30765 1.42085 22.98700 0 0 0
68 1.89824 1.98555 23.57484 0 0 0
69 2.60353 2.70479 23.57774 0 0 0
70 2.92873 3.24483 24.40471 0 0 0
71 3.25186 3.77268 25.17991 0 0 0
72 3.50629 4.58961 25.61631 0 0 0
73 4.26341 4.23864 26.23993 0 0 0
74 4.57511 5.12926 26.13989 0 0 0
75 5.29143 5.47416 26.62537 0 0 0
76 5.48057 6.13795 27.39748 0 0 0
77 5.74587 6.95901 27.81462 0 0 0
78 6.47632 6.80819 28.39694 0 0 0
79 7.01466 7.10750 29.14476 0 0 0
80 6.96237 7.67263 29.90401 0 0 0
81 7.91276 7.75288 30.22595 0 0 0
82 8.10948 6.95079 30.71282 0 0 0
83 7.28834 6.56442 30.94092 0 0 0
84 7.20166 5.60777 30.88166 0 0 0
85 6.44128 5.41945 31.47875 0 0 0
86 5.50476 5.09235 31.73420 0 0 0
87 5.43408 4.57439 32.57665 0 0 0
88 4.96220 4.42030 33.41467 0 0 0
89 4.29385 4.62045 34.06595 0 0 0
90 4.37683 3.86467 34.72621 0 0 0
91 3.51701 3.51249 34.71092 0 0 0
92 2.69046 4.01677 34.90695 0 0 0
93 1.83749 3.62443 35.29886 0 0 0
94 1.41538 3.48626 36.11367 0 0 0
95 1.06771 2.90909 36.88349 0 0 0
96 0.64291 3.80265 36.84609 0 0 0
97 0.66731 4.69847 36.27552 0 0 0
98 1.38075 5.57521 36.29703 0 0 0
99 0.85001 6.00838 36.96343 0 0 0
100 0.01188 6.42691 37.48891 0 0 0
101 0.29858 6.72456 38.42978 0 0 0
102 7.57958 8.62886 29.87036 0 0 0
103 7.18317 9.22078 29.23424 0 0 0
104 6.74362 9.68448 29.98942 0 0 0
105 7.21990 10.47488 30.36912 0 0 0
106 7.77619 11.05074 29.83947 0 0 0
107 8.54318 11.64382 29.92138 0 0 0
108 8.14957 12.50819 30.35439 0 0 0
109 8.00858 13.34418 31.05516 0 0 0
110 8.46165 14.21646 31.34961 0 0 0
111 8.26187 15.14345 30.88167 0 0 0
112 7.72676 15.92095 30.84188 0 0 0
113 7.63389 16.87924 30.83026 0 0 0
114 7.31350 17.86983 31.09342 0 0 0
115 7.86370 18.68090 30.91120 0 0 0
116 7.64997 19.60180 31.08678 0 0 0
117 7.12318 20.37868 31.31598 0 0 0
118 7.00389 21.41458 31.24320 0 0 0
119 7.01596 22.36336 30.90537 0 0 0
120 6.95674 22.85440 31.85978 0 0 0
121 6.44012 23.62364 32.23965 0 0 0
122 8.82076 8.16054 30.30480 0 0 0
123 9.86882 8.25363 30.18775 0 0 0
124 10.22011 7.43108 29.70813 0 0 0
125 10.63019 6.61958 29.61393 0 0 0
126 11.27166 6.19749 30.17504 0 0 0
127 12.24650 6.07235 29.99504 0 0 0
128 13.09726 5.84860 30.40609 0 0 0
129 14.04520 5.69190 30.63814 0 0 0
130 14.93457 5.61207 30.14041 0 0 0
131 15.87316 5.34921 30.33317 0 0 0
132 16.60621 5.51113 29.64351 0 0 0
133 17.51902 5.42412 30.00027 0 0 0
134 18.55530 5.46662 29.88325 0 0 0
135 19.50381 5.81112 29.85576 0 0 0
136 20.51344 5.68783 29.63785 0 0 0
137 20.51533 4.85026 30.15594 0 0 0
138 20.72991 3.96306 30.51033 0 0 0
139 21.71280 3.76090 30.48634 0 0 0
140 22.70385 3.80083 30.30197 0 0 0
141 23.60628 3.62784 30.50554 0 0 0
142 24.00274 2.78911 30.30877 0 0 0
143 24.45247 2.40398 29.55859 0 0 0
144 24.88506 1.90165 30.26655 0 0 0
145 25.22802 1.00305 29.84905 0 0 0
146 24.36609 0.88951 29.40528 0 0 0
147 24.78662 0.08393 29.84567 0 0 0
148 25.30720 -0.67716 29.91067 0 0 0
149 25.37028 -1.55733 29.61829 0 0 0
150 26.15001 -2.22136 29.70354 0 0 0
151 26.14642 -3.07021 29.05242 0 0 0
152 26.01669 -4.08025 29.11312 0 0 0
153 25.75107 -5.04462 28.80536 0 0 0
154 25.91320 -5.77445 28.14693 0 0 0
155 26.24411 -5.70186 27.27750 0 0 0
156 25.81557 -6.03262 26.46267 0 0 0
157 25.19713 -6.06182 25.69454 0 0 0
158 25.10021 -6.69691 24.87083 0 0 0
159 24.76397 -6.78345 23.97091 0 0 0
160 25.38443 -6.32349 23.37754 0 0 0
161 26.06575 -5.88829 22.79742 0 0 0
162 23.41102 3.87103 31.42053 0 0 0
163 23.20304 4.31131 32.31991 0 0 0
164 24.08148 4.22778 32.70606 0 0 0
165 24.91065 3.73137 32.78852 0 0 0
166 25.33543 3.22773 33.49904 0 0 0
167 26.09638 2.78893 34.07606 0 0 0
168 26.83776 2.23006 34.30192 0 0 0
169 26.75210 1.92193 35.21492 0 0 0
170 26.59763 1.03656 35.56647 0 0 0
171 27.28477 1.42863 36.18689 0 0 0
172 27.88455 1.83455 36.91320 0 0 0
173 28.59220 2.49959 37.06310 0 0 0
174 29.16841 2.69847 37.88543 0 0 0
175 28.55582 2.37487 38.62393 0 0 0
176 28.33456 2.52206 39.58485 0 0 0
177 27.82407 2.61447 40.38394 0 0 0
178 28.41884 2.97410 41.12460 0 0 0
179 29.34147 2.80400 41.38866 0 0 0
180 29.96373 3.42620 41.77848 0 0 0
181 29.02873 3.80428 41.85045 0 0 0
182 24.34502 3.71661 29.90371 0 0 0
183 25.18854 4.18546 29.99202 0 0 0
184 25.50164 4.95498 30.45456 0 0 0
185 26.09354 5.40823 29.85596 0 0 0
186 26.99466 5.49708 30.32823 0 0 0
187 27.54455 4.78624 29.98127 0 0 0
188 27.92481 5.21550 29.19660 0 0 0
189 28.76049 5.59195 28.89003 0 0 0
190 29.02321 6.10295 28.07812 0 0 0
191 29.66156 6.25778 27.37706 0 0 0
192 30.60702 6.17800 27.15324 0 0 0
193 31.34570 5.57221 27.49555 0 0 0
194 31.82207 5.20967 28.27000 0 0 0
195 32.25499 5.98832 27.95374 0 0 0
196 32.98679 6.51527 28.09568 0 0 0
197 33.46623 7.40652 27.96851 0 0 0
198 34.16204 7.96781 27.83679 0 0 0
199 34.95756 8.23624 28.31117 0 0 0
200 34.42002 9.04654 28.13175 0 0 0
201 33.64243 9.57438 27.73502 0 0 0
ITEM: TIMESTEP
3000
ITEM: NUMBER OF ATOMS
201
ITEM: BOX BOUNDS pp pp pp
-1.0000000000000000e+03 1.0000000000000000e+03
-1.0000000000000000e+03 1.0000000000000000e+03
-1.0000000000000000e+03 1.0000000000000000e+03
ITEM: ATOMS id x y z ix iy iz
1 -1.09827 -1.62810 8.41272 0 0 0
2 -0.52714 -2.42403 8.48960 0 0 0
3 0.41821 -2.08002 8.85707 0 0 0
4 -0.21005 -1.34357 9.05518 0 0 0
5 -0.71026 -1.63463 9.89347 0 0 0
6 -0.46069 -0.89031 10.45485 0 0 0
7 -0.22687 -0.86404 11.37061 0 0 0
8 0.11580 -1.61144 11.92604 0 0 0
9 0.45264 -2.34769 12.38590 0 0 0
10 0.63631 -1.44108 12.81712 0 0 0
11 1.41915 -1.06873 13.11554 0 0 0
12 1.97032 -0.93245 13.91690 0 0 0
13 1.01838 -0.88957 14.17406 0 0 0
14 0.28993 -1.34589 14.54395 0 0 0
15 0.47682 -1.85162 15.31072 0 0 0
16 0.87652 -1.09416 15.85869 0 0 0
17 0.58519 -0.69705 16.65720 0 0 0
18 0.91116 0.04957 17.13852 0 0 0
19 0.48689 0.12582 18.09984 0 0 0
20 0.73486 0.50254 19.00310 0 0 0
21 1.10555 0.36413 20.01658 0 0 0
22 1.72521 -0.20924 20.56876 0 0 0
23 2.01538 -1.13239 20.38996 0 0 0
24 2.44284 -1.82151 19.78083 0 0 0
25 3.09452 -2.28070 19.18430 0 0 0
26 3.55244 -1.69181 18.51474 0 0 0
27 4.40886 -1.95536 17.97978 0 0 0
28 4.82794 -2.79547 18.23424 0 0 0
29 4.90646 -3.68855 17.71949 0 0 0
30 5.27329 -4.51067 17.27250 0 0 0
31 6.05524 -4.99399 17.55657 0 0 0
32 5.95254 -5.92309 17.08855 0 0 0
33 5.42073 -6.64202 16.70634 0 0 0
34 5.31978 -7.59576 16.66617 0 0 0
35 5.65220 -8.11682 15.87904 0 0 0
36 6.06208 -7.90891 14.99243 0 0 0
37 6.31790 -6.98844 15.19476 0 0 0
38 6.33806 -6.31811 15.92111 0 0 0
39 5.61573 -6.20426 15.19933 0 0 0
40 5.33356 -5.48815 14.60066 0 0 0
41 4.74145 -5.18959 13.90251 0 0 0
42 0.67341 -0.43187 19.64180 0 0 0
43 -0.03401 -0.73981 19.07177 0 0 0
44 -0.20150 -1.39674 18.36277 0 0 0
45 -0.03702 -1.77407 17.51635 0 0 0
46 -0.46734 -2.60125 17.23841 0 0 0
47 0.11974 -2.62909 18.10494 0 0 0
48 -0.44459 -3.45744 17.96171 0 0 0
49 -1.14273 -2.75687 18.18609 0 0 0
50 -2.05484 -2.96066 18.59854 0 0 0
51 -2.83413 -3.31263 19.09935 0 0 0
52 -3.68657 -3.03136 19.38519 0 0 0
53 -4.31404 -2.47164 18.92776 0 0 0
54 -4.81376 -1.61518 18.95713 0 0 0
55 -5.15301 -2.22545 18.18726 0 0 0
56 -5.55364 -1.38909 17.90519 0 0 0
57 -6.19066 -0.69170 17.73987 0 0 0
58 -6.73545 -1.55603 17.87169 0 0 0
59 -7.53801 -1.95283 17.97199 0 0 0
60 -8.24214 -2.30047 17.27555 0 0 0
61 -9.12477 -1.88495 17.37802 0 0 0
62 1.75988 0.91383 20.47584 0 0 0
63 2.32488 1.26943 21.19677 0 0 0
64 2.32699 1.50140 22.11789 0 0 0
65 3.01861 1.93814 22.78645 0 0 0
66 3.04257 2.79782 23.08109 0 0 0
67 3.66513 3.34350 23.47622 0 0 0
68 3.73020 4.05971 24.09301 0 0 0
69 4.48085 4.21854 23.46586 0 0 0
70 3.82087 5.02179 23.61361 0 0 0
71 4.12377 5.27660 24.62353 0 0 0
72 4.67242 6.01851 24.97834 0 0 0
73 4.95698 5.75561 25.88117 0 0 0
74 5.29592 6.68154 26.01380 0 0 0
75 6.14857 7.20077 25.73041 0 0 0
76 6.44976 6.56871 26.48219 0 0 0
77 6.38138 7.45038 27.07693 0 0 0
78 6.93776 7.07172 27.84240 0 0 0
79 7.57158 7.45201 28.55296 0 0 0
80 7.74359 7.59705 29.56526 0 0 0
81 8.03439 7.83344 30.41391 0 0 0
82 7.42362 7.37169 31.02193 0 0 0
83 6.70501 6.74352 31.16741 0 0 0
84 6.80323 5.77691 31.44414 0 0 0
85 5.86413 5.53439 31.64393 0 0 0
86 5.18066 5.10664 32.16377 0 0 0
87 4.93928 4.18148 32.11571 0 0 0
88 5.37842 4.31250 33.00430 0 0 0
89 5.07087 4.30304 33.90234 0 0 0
90 4.70838 4.51677 34.79578 0 0 0
91 4.95575 4.89642 35.71091 0 0 0
92 5.82458 4.78992 36.06613 0 0 0
93 6.20302 5.20398 36.83232 0 0 0
94 5.50518 5.25475 37.62989 0 0 0
95 4.56776 5.64737 37.76102 0 0 0
96 3.69380 5.51800 38.10627 0 0 0
97 2.84168 5.92411 37.87282 0 0 0
98 2.30919 5.17114 37.56658 0 0 0
99 1.99172 4.67507 36.68132 0 0 0
100 1.61276 4.99282 35.83355 0 0 0
101 0.73358 4.61341 36.04278 0 0 0
102 8.54368 8.55979 30.77758 0 0 0
103 8.32187 9.31082 30.14196 0 0 0
104 7.49097 9.23234 29.67443 0 0 0
105 7.32366 10.15727 29.71231 0 0 0
106 7.34349 10.95257 29.26419 0 0 0
107 7.19823 11.79276 28.88742 0 0 0
108 7.35049 12.63650 29.39563 0 0 0
109 7.36462 13.48807 29.92347 0 0 0
110 6.81999 12.90849 30.50457 0 0 0
111 6.17225 13.08536 31.19883 0 0 0
112 6.78569 13.75844 31.61789 0 0 0
113 7.30065 14.44176 32.15231 0 0 0
114 8.14680 14.22526 31.69356 0 0 0
115 7.83974 14.26563 30.71739 0 0 0
116 8.37421 15.13076 30.59926 0 0 0
117 7.98192 16.01932 30.53388 0 0 0
118 7.05676 16.51733 30.53392 0 0 0
119 7.15394 17.29031 30.00419 0 0 0
120 6.67043 17.95154 30.62322 0 0 0
121 5.68995 18.00577 30.39201 0 0 0
122 9.00738 7.75835 30.35964 0 0 0
123 9.93465 7.70109 30.72046 0 0 0
124 10.64529 8.05207 30.01416 0 0 0
125 11.47785 7.87285 30.50195 0 0 0
126 11.26895 7.17317 29.83965 0 0 0
127 11.98192 6.57834 29.54839 0 0 0
128 12.73885 6.67187 28.84211 0 0 0
129 13.57801 7.15341 29.01091 0 0 0
130 14.50669 6.90060 29.25645 0 0 0
131 15.39719 6.78648 29.36298 0 0 0
132 15.75240 5.92172 29.35815 0 0 0
133 16.24308 5.58069 28.50700 0 0 0
134 17.18202 5.68967 28.51375 0 0 0
135 18.00861 5.30581 28.74960 0 0 0
136 18.97543 5.45197 28.66841 0 0 0
137 19.95615 5.28928 28.94394 0 0 0
138 20.59344 5.01497 29.61444 0 0 0
139 21.30350 4.98279 30.20837 0 0 0
140 22.13868 4.94398 30.70669 0 0 0
141 22.92416 4.40379 30.87983 0 0 0
142 23.72840 4.12275 30.56577 0 0 0
143 24.23064 3.25271 30.33247 0 0 0
144 24.44550 2.37832 30.71000 0 0 0
145 24.69362 1.63079 31.34973 0 0 0
146 24.37489 1.45135 30.39395 0 0 0
147 24.64085 0.49441 30.17882 0 0 0
148 25.59617 0.41065 30.13636 0 0 0
149 25.90966 -0.48165 30.35255 0 0 0
150 26.86223 -0.58895 30.24833 0 0 0
151 26.27958 -1.42441 30.56372 0 0 0
152 25.79947 -1.98462 29.97690 0 0 0
153 25.30487 -2.68764 29.50705 0 0 0
154 25.22576 -2.79840 28.48465 0 0 0
155 24.94843 -3.06937 27.65024 0 0 0
156 25.77630 -2.65136 27.42002 0 0 0
157 25.77533 -3.47623 26.71355 0 0 0
158 25.00344 -4.02113 26.97876 0 0 0
159 24.25106 -4.16916 27.56593 0 0 0
160 23.78167 -4.99593 27.50128 0 0 0
161 23.00119 -5.63904 27.46858 0 0 0
162 23.32730 4.01324 31.74253 0 0 0
163 23.93462 3.22095 31.95175 0 0 0
164 23.65703 2.67080 32.67202 0 0 0
165 22.83741 2.22010 32.95951 0 0 0
166 22.16899 2.86202 33.28093 0 0 0
167 22.52943 2.80071 34.15752 0 0 0
168 23.07842 2.95185 34.97337 0 0 0
169 23.52313 3.83078 35.02123 0 0 0
170 24.10915 4.28219 35.72020 0 0 0
171 24.88604 4.67344 36.19865 0 0 0
172 25.93169 4.75433 36.23317 0 0 0
173 26.45108 3.94022 36.23403 0 0 0
174 27.12530 4.63651 36.43407 0 0 0
175 27.83911 4.18453 36.04644 0 0 0
176 28.74253 3.90694 36.20787 0 0 0
177 29.66824 4.01347 36.45366 0 0 0
178 30.29509 4.70908 36.05042 0 0 0
179 30.78098 5.52757 35.94317 0 0 0
180 31.53252 6.12607 35.71538 0 0 0
181 31.91056 6.68466 34.94442 0 0 0
182 23.67061 5.08659 31.19576 0 0 0
183 24.17015 4.74024 31.90702 0 0 0
184 24.60237 4.26101 31.23359 0 0 0
185 25.39929 3.77514 31.59420 0 0 0
186 26.33501 3.49973 31.29557 0 0 0
187 26.80319 4.29253 30.93405 0 0 0
188 27.58338 4.77640 30.33937 0 0 0
189 28.04785 4.86994 29.42687 0 0 0
190 28.22280 4.96479 28.54192 0 0 0
191 29.14917 4.45532 28.29011 0 0 0
192 29.83161 4.36915 29.07533 0 0 0
193 30.42391 5.10452 29.03267 0 0 0
194 31.21444 5.12294 29.64714 0 0 0
195 31.93940 5.45120 29.14408 0 0 0
196 32.38964 5.79072 29.94953 0 0 0
197 33.06411 6.41080 30.23012 0 0 0
198 33.09422 7.34211 30.04835 0 0 0
199 33.83028 7.72501 29.45597 0 0 0
200 34.38176 7.86273 30.26203 0 0 0
201 34.75915 7.86656 31.12756 0 0 0
ITEM: TIMESTEP
4000
ITEM: NUMBER OF ATOMS
201
ITEM: BOX BOUNDS pp pp pp
-1.0000000000000000e+03 1.0000000000000000e+03
-1.0000000000000000e+03 1.0000000000000000e+03
-1.0000000000000000e+03 1.0000000000000000e+03
ITEM: ATOMS id x y z ix iy iz
1 -2.15533 0.22977 13.13664 0 0 0
2 -1.89016 -0.34221 12.42347 0 0 0
3 -1.07419 -0.35797 11.80136 0 0 0
4 -0.62051 -0.88454 11.17965 0 0 0
5 0.15682 -1.42404 11.37352 0 0 0
6 0.43075 -1.02516 12.21666 0 0 0
7 0.77836 -1.25766 13.09695 0 0 0