bb151nuc1bl75bn4d30tot300V2

301 atoms
300 bonds
302 angles

1 atom types
1 bond types
1 angle types

-1000 1000 xlo xhi
-1000 1000 ylo yhi
-1000 1000 zlo zhi

Masses

1 1

Atoms

1	1	1	0.0	0.0	0.0	0	0	0
2	1	1	0.0	0.0	1.0	0	0	0
3	1	1	0.0	-0.49999999999999994	1.8660254037844388	0	0	0
4	1	1	0.0	0.0	2.7320508075688776	0	0	0
5	1	1	0.0	-0.49999999999999994	3.5980762113533165	0	0	0
6	1	1	0.0	0.0	4.464101615137755	0	0	0
7	1	1	0.0	-0.49999999999999994	5.330127018922194	0	0	0
8	1	1	0.0	0.0	6.196152422706632	0	0	0
9	1	1	0.0	-0.49999999999999994	7.06217782649107	0	0	0
10	1	1	0.0	0.0	7.928203230275509	0	0	0
11	1	1	0.0	-0.49999999999999994	8.794228634059948	0	0	0
12	1	1	0.0	0.0	9.660254037844387	0	0	0
13	1	1	0.0	-0.49999999999999994	10.526279441628827	0	0	0
14	1	1	0.0	0.0	11.392304845413266	0	0	0
15	1	1	0.0	-0.49999999999999994	12.258330249197705	0	0	0
16	1	1	0.0	0.0	13.124355652982144	0	0	0
17	1	1	0.0	-0.49999999999999994	13.990381056766584	0	0	0
18	1	1	0.0	0.0	14.856406460551023	0	0	0
19	1	1	0.0	-0.49999999999999994	15.722431864335462	0	0	0
20	1	1	0.0	0.0	16.5884572681199	0	0	0
21	1	1	0.0	-0.49999999999999994	17.454482671904337	0	0	0
22	1	1	0.0	0.0	18.320508075688775	0	0	0
23	1	1	0.0	-0.49999999999999994	19.186533479473212	0	0	0
24	1	1	0.0	0.0	20.05255888325765	0	0	0
25	1	1	0.0	-0.49999999999999994	20.918584287042087	0	0	0
26	1	1	0.0	0.0	21.784609690826525	0	0	0
27	1	1	0.0	-0.49999999999999994	22.650635094610962	0	0	0
28	1	1	0.0	0.0	23.5166604983954	0	0	0
29	1	1	0.0	-0.49999999999999994	24.382685902179837	0	0	0
30	1	1	0.0	0.0	25.248711305964274	0	0	0
31	1	1	0.0	-0.49999999999999994	26.114736709748712	0	0	0
32	1	1	0.0	0.0	26.98076211353315	0	0	0
33	1	1	0.0	-0.49999999999999994	27.846787517317587	0	0	0
34	1	1	0.0	0.0	28.712812921102024	0	0	0
35	1	1	0.0	-0.49999999999999994	29.578838324886462	0	0	0
36	1	1	0.0	0.0	30.4448637286709	0	0	0
37	1	1	0.0	-0.49999999999999994	31.310889132455337	0	0	0
38	1	1	0.0	0.0	32.17691453623978	0	0	0
39	1	1	0.0	-0.49999999999999994	33.04293994002422	0	0	0
40	1	1	0.0	0.0	33.90896534380866	0	0	0
41	1	1	0.0	-0.49999999999999994	34.7749907475931	0	0	0
42	1	1	0.0	0.0	35.64101615137754	0	0	0
43	1	1	0.0	-0.49999999999999994	36.50704155516198	0	0	0
44	1	1	0.0	0.0	37.373066958946424	0	0	0
45	1	1	0.0	-0.49999999999999994	38.239092362730865	0	0	0
46	1	1	0.0	0.0	39.105117766515306	0	0	0
47	1	1	0.0	-0.49999999999999994	39.97114317029975	0	0	0
48	1	1	0.0	0.0	40.83716857408419	0	0	0
49	1	1	0.0	-0.49999999999999994	41.70319397786863	0	0	0
50	1	1	0.0	0.0	42.56921938165307	0	0	0
51	1	1	0.0	-0.49999999999999994	43.43524478543751	0	0	0
52	1	1	0.0	0.0	44.30127018922195	0	0	0
53	1	1	0.0	-0.49999999999999994	45.16729559300639	0	0	0
54	1	1	0.0	0.0	46.033320996790835	0	0	0
55	1	1	0.0	-0.49999999999999994	46.899346400575276	0	0	0
56	1	1	0.0	0.0	47.76537180435972	0	0	0
57	1	1	0.0	-0.49999999999999994	48.63139720814416	0	0	0
58	1	1	0.0	0.0	49.4974226119286	0	0	0
59	1	1	0.0	-0.49999999999999994	50.36344801571304	0	0	0
60	1	1	0.0	0.0	51.22947341949748	0	0	0
61	1	1	0.0	-0.49999999999999994	52.09549882328192	0	0	0
62	1	1	0.0	0.0	52.96152422706636	0	0	0
63	1	1	0.0	-0.49999999999999994	53.827549630850804	0	0	0
64	1	1	0.0	0.0	54.693575034635245	0	0	0
65	1	1	0.0	-0.49999999999999994	55.559600438419686	0	0	0
66	1	1	0.0	0.0	56.42562584220413	0	0	0
67	1	1	0.0	-0.49999999999999994	57.29165124598857	0	0	0
68	1	1	0.0	0.0	58.15767664977301	0	0	0
69	1	1	0.0	-0.49999999999999994	59.02370205355745	0	0	0
70	1	1	0.0	0.0	59.88972745734189	0	0	0
71	1	1	0.0	-0.49999999999999994	60.75575286112633	0	0	0
72	1	1	0.0	0.0	61.62177826491077	0	0	0
73	1	1	0.0	-0.49999999999999994	62.487803668695214	0	0	0
74	1	1	0.0	0.0	63.353829072479655	0	0	0
75	1	1	0.0	-0.49999999999999994	64.21985447626409	0	0	0
76	1	1	0.0	0.0	65.08587988004852	0	0	0
77	1	1	-0.18990460407688362	0.9665170341529503	64.91330797027588	0	0	0
78	1	1	-0.379809208153768	1.8898312938061244	65.24711482950966	0	0	0
79	1	1	-0.5697138122306524	2.6405736436866514	64.61440465459047	0	0	0
80	1	1	-0.7596184163075368	3.5638879033398254	64.94821151382425	0	0	0
81	1	1	-0.9495230203844212	4.314630253220352	64.31550133890507	0	0	0
82	1	1	-1.1394276244613055	5.2379445128735265	64.64930819813884	0	0	0
83	1	1	-1.3293322285381899	5.9886868627540535	64.01659802321966	0	0	0
84	1	1	-1.5192368326150743	6.9120011224072275	64.35040488245343	0	0	0
85	1	1	-1.7091414366919586	7.6627434722877545	63.71769470753425	0	0	0
86	1	1	-1.899046040768843	8.586057731940928	64.05150156676802	0	0	0
87	1	1	-2.0889506448457276	9.336800081821455	63.41879139184884	0	0	0
88	1	1	-2.278855248922612	10.260114341474628	63.75259825108261	0	0	0
89	1	1	-2.4687598529994963	11.010856691355155	63.11988807616343	0	0	0
90	1	1	-2.6586644570763807	11.934170951008328	63.453694935397195	0	0	0
91	1	1	-2.848569061153265	12.684913300888855	62.82098476047801	0	0	0
92	1	1	-3.0384736652301494	13.608227560542028	63.15479161971178	0	0	0
93	1	1	-3.2283782693070338	14.358969910422555	62.5220814447926	0	0	0
94	1	1	-3.418282873383918	15.282284170075728	62.855888304026365	0	0	0
95	1	1	-3.6081874774608025	16.033026519956255	62.22317812910718	0	0	0
96	1	1	-3.798092081537687	16.95634077960943	62.55698498834095	0	0	0
97	1	1	-3.987996685614571	17.70708312948996	61.92427481342177	0	0	0
98	1	1	-4.177901289691456	18.630397389143134	62.258081672655535	0	0	0
99	1	1	-4.367805893768341	19.38113973902366	61.62537149773635	0	0	0
100	1	1	-4.557710497845226	20.304453998676834	61.95917835697012	0	0	0
101	1	1	-4.7476151019221104	21.05519634855736	61.32646818205094	0	0	0
102	1	1	-4.937519705998995	21.978510608210534	61.660275041284706	0	0	0
103	1	1	-5.12742431007588	22.72925295809106	61.02756486636552	0	0	0
104	1	1	-5.317328914152765	23.652567217744235	61.36137172559929	0	0	0
105	1	1	-5.50723351822965	24.40330956762476	60.72866155068011	0	0	0
106	1	1	-5.6971381223065345	25.326623827277935	61.062468409913876	0	0	0
107	1	1	-5.887042726383419	26.07736617715846	60.429758234994694	0	0	0
108	1	1	-6.076947330460304	27.000680436811635	60.76356509422846	0	0	0
109	1	1	-6.266851934537189	27.75142278669216	60.13085491930928	0	0	0
110	1	1	-6.456756538614074	28.674737046345335	60.46466177854305	0	0	0
111	1	1	-6.6466611426909585	29.42547939622586	59.831951603623864	0	0	0
112	1	1	-6.836565746767843	30.348793655879035	60.16575846285763	0	0	0
113	1	1	-7.026470350844728	31.09953600575956	59.53304828793845	0	0	0
114	1	1	-7.216374954921613	32.022850265412735	59.86685514717222	0	0	0
115	1	1	-7.406279558998498	32.77359261529326	59.234144972253034	0	0	0
116	1	1	-7.596184163075383	33.696906874946436	59.5679518314868	0	0	0
117	1	1	-7.786088767152267	34.44764922482696	58.93524165656762	0	0	0
118	1	1	-7.975993371229152	35.370963484480136	59.26904851580139	0	0	0
119	1	1	-8.165897975306036	36.12170583436066	58.636338340882205	0	0	0
120	1	1	-8.355802579382921	37.045020094013836	58.97014520011597	0	0	0
121	1	1	-8.545707183459806	37.79576244389436	58.33743502519679	0	0	0
122	1	1	-8.73561178753669	38.719076703547536	58.67124188443056	0	0	0
123	1	1	-8.925516391613575	39.46981905342806	58.038531709511375	0	0	0
124	1	1	-9.11542099569046	40.393133313081236	58.37233856874514	0	0	0
125	1	1	-9.305325599767345	41.14387566296176	57.73962839382596	0	0	0
126	1	1	-9.49523020384423	42.067189922614936	58.07343525305973	0	0	0
127	1	1	-9.685134807921115	42.81793227249546	57.440725078140545	0	0	0
128	1	1	-9.875039411998	43.74124653214864	57.77453193737431	0	0	0
129	1	1	-10.064944016074884	44.49198888202916	57.14182176245513	0	0	0
130	1	1	-10.254848620151769	45.41530314168234	57.4756286216889	0	0	0
131	1	1	-10.444753224228654	46.16604549156286	56.842918446769716	0	0	0
132	1	1	-10.634657828305539	47.08935975121604	57.17672530600348	0	0	0
133	1	1	-10.824562432382423	47.84010210109656	56.5440151310843	0	0	0
134	1	1	-11.014467036459308	48.76341636074974	56.87782199031807	0	0	0
135	1	1	-11.204371640536193	49.51415871063026	56.245111815398886	0	0	0
136	1	1	-11.394276244613078	50.43747297028344	56.578918674632654	0	0	0
137	1	1	-11.584180848689963	51.18821532016396	55.94620849971347	0	0	0
138	1	1	-11.774085452766847	52.11152957981714	56.28001535894724	0	0	0
139	1	1	-11.963990056843732	52.86227192969766	55.647305184028056	0	0	0
140	1	1	-12.153894660920617	53.78558618935084	55.981112043261824	0	0	0
141	1	1	-12.343799264997502	54.53632853923136	55.34840186834264	0	0	0
142	1	1	-12.533703869074387	55.45964279888454	55.68220872757641	0	0	0
143	1	1	-12.723608473151272	56.21038514876506	55.04949855265723	0	0	0
144	1	1	-12.913513077228156	57.13369940841824	55.383305411890994	0	0	0
145	1	1	-13.103417681305041	57.88444175829876	54.75059523697181	0	0	0
146	1	1	-13.293322285381926	58.80775601795194	55.08440209620558	0	0	0
147	1	1	-13.48322688945881	59.55849836783246	54.4516919212864	0	0	0
148	1	1	-13.673131493535696	60.48181262748564	54.785498780520165	0	0	0
149	1	1	-13.86303609761258	61.23255497736616	54.15278860560098	0	0	0
150	1	1	-14.052940701689465	62.15586923701934	54.48659546483475	0	0	0
151	1	1	-14.24284530576635	62.906611586899864	53.85388528991557	0	0	0
152	1	1	0.8945659065745106	-0.09047491959347746	65.52356255930265	0	0	0
153	1	1	1.7891318131490248	-0.38766983799384735	65.85736941853642	0	0	0
154	1	1	2.683697719723539	-0.24718207714009002	66.28165119736367	0	0	0
155	1	1	3.578263626298053	-0.5443769955404599	66.61545805659745	0	0	0
156	1	1	4.472829532872567	-0.40388923468670257	67.0397398354247	0	0	0
157	1	1	5.3673954394470815	-0.7010841530870724	67.37354669465847	0	0	0
158	1	1	6.261961346021596	-0.560596392233315	67.79782847348572	0	0	0
159	1	1	7.15652725259611	-0.857791310633685	68.1316353327195	0	0	0
160	1	1	8.051093159170623	-0.7173035497799276	68.55591711154675	0	0	0
161	1	1	8.945659065745138	-1.0144984681802975	68.88972397078052	0	0	0
162	1	1	9.840224972319653	-0.8740107073265402	69.31400574960777	0	0	0
163	1	1	10.734790878894168	-1.1712056257269101	69.64781260884155	0	0	0
164	1	1	11.629356785468683	-1.0307178648731528	70.0720943876688	0	0	0
165	1	1	12.523922692043199	-1.3279127832735227	70.40590124690257	0	0	0
166	1	1	13.418488598617714	-1.1874250224197653	70.83018302572982	0	0	0
167	1	1	14.313054505192229	-1.4846199408201353	71.1639898849636	0	0	0
168	1	1	15.207620411766744	-1.344132179966378	71.58827166379085	0	0	0
169	1	1	16.102186318341257	-1.6413270983667478	71.92207852302462	0	0	0
170	1	1	16.99675222491577	-1.5008393375129905	72.34636030185187	0	0	0
171	1	1	17.891318131490284	-1.7980342559133604	72.68016716108565	0	0	0
172	1	1	18.785884038064797	-1.657546495059603	73.1044489399129	0	0	0
173	1	1	19.68044994463931	-1.954741413459973	73.43825579914667	0	0	0
174	1	1	20.575015851213823	-1.8142536526062156	73.86253757797392	0	0	0
175	1	1	21.469581757788337	-2.1114485710065853	74.1963444372077	0	0	0
176	1	1	22.36414766436285	-1.970960810152828	74.62062621603495	0	0	0
177	1	1	23.258713570937363	-2.268155728553198	74.95443307526872	0	0	0
178	1	1	24.153279477511877	-2.1276679676994408	75.37871485409597	0	0	0
179	1	1	25.04784538408639	-2.4248628860998105	75.71252171332975	0	0	0
180	1	1	25.942411290660903	-2.2843751252460534	76.136803492157	0	0	0
181	1	1	26.836977197235417	-2.581570043646423	76.47061035139077	0	0	0
182	1	1	27.73154310380993	-2.441082282792666	76.89489213021803	0	0	0
183	1	1	28.626109010384443	-2.7382772011930356	77.2286989894518	0	0	0
184	1	1	29.520674916958956	-2.5977894403392785	77.65298076827905	0	0	0
185	1	1	30.41524082353347	-2.894984358739648	77.98678762751283	0	0	0
186	1	1	31.309806730107983	-2.754496597885891	78.41106940634008	0	0	0
187	1	1	32.2043726366825	-3.051691516286261	78.74487626557385	0	0	0
188	1	1	33.09893854325701	-2.9112037554325036	79.1691580444011	0	0	0
189	1	1	33.993504449831526	-3.2083986738328734	79.50296490363488	0	0	0
190	1	1	34.88807035640604	-3.0679109129791162	79.92724668246213	0	0	0
191	1	1	35.78263626298055	-3.365105831379486	80.2610535416959	0	0	0
192	1	1	36.677202169555066	-3.224618070525729	80.68533532052315	0	0	0
193	1	1	37.57176807612958	-3.5218129889260985	81.01914217975693	0	0	0
194	1	1	38.46633398270409	-3.3813252280723414	81.44342395858418	0	0	0
195	1	1	39.360899889278606	-3.678520146472711	81.77723081781795	0	0	0
196	1	1	40.25546579585312	-3.538032385618954	82.2015125966452	0	0	0
197	1	1	41.15003170242763	-3.8352273040193237	82.53531945587898	0	0	0
198	1	1	42.044597609002146	-3.6947395431655665	82.95960123470623	0	0	0
199	1	1	42.93916351557666	-3.9919344615659362	83.29340809394	0	0	0
200	1	1	43.83372942215117	-3.851446700712179	83.71768987276725	0	0	0
201	1	1	44.728295328725686	-4.148641619112549	84.05149673200103	0	0	0
202	1	1	45.6228612353002	-4.008153858258792	84.47577851082828	0	0	0
203	1	1	46.51742714187471	-4.305348776659162	84.80958537006205	0	0	0
204	1	1	47.411993048449226	-4.164861015805405	85.2338671488893	0	0	0
205	1	1	48.30655895502374	-4.462055934205775	85.56767400812308	0	0	0
206	1	1	49.20112486159825	-4.321568173352018	85.99195578695033	0	0	0
207	1	1	50.095690768172766	-4.618763091752388	86.3257626461841	0	0	0
208	1	1	50.99025667474728	-4.478275330898631	86.75004442501135	0	0	0
209	1	1	51.88482258132179	-4.775470249299001	87.08385128424513	0	0	0
210	1	1	52.779388487896306	-4.634982488445244	87.50813306307238	0	0	0
211	1	1	53.67395439447082	-4.932177406845614	87.84193992230615	0	0	0
212	1	1	54.56852030104533	-4.791689645991857	88.2662217011334	0	0	0
213	1	1	55.463086207619845	-5.088884564392227	88.60002856036718	0	0	0
214	1	1	56.35765211419436	-4.94839680353847	89.02431033919443	0	0	0
215	1	1	57.25221802076887	-5.24559172193884	89.3581171984282	0	0	0
216	1	1	58.146783927343385	-5.105103961085083	89.78239897725545	0	0	0
217	1	1	59.0413498339179	-5.402298879485453	90.11620583648923	0	0	0
218	1	1	59.93591574049241	-5.261811118631696	90.54048761531648	0	0	0
219	1	1	60.830481647066925	-5.559006037032066	90.87429447455025	0	0	0
220	1	1	61.72504755364144	-5.418518276178309	91.2985762533775	0	0	0
221	1	1	62.61961346021595	-5.715713194578679	91.63238311261128	0	0	0
222	1	1	63.514179366790465	-5.575225433724922	92.05666489143853	0	0	0
223	1	1	64.40874527336499	-5.8724203521252925	92.3904717506723	0	0	0
224	1	1	65.3033111799395	-5.731932591271535	92.81475352949955	0	0	0
225	1	1	66.19787708651401	-6.0291275096719055	93.14856038873333	0	0	0
226	1	1	67.09244299308853	-5.888639748818148	93.57284216756058	0	0	0
227	1	1	-0.7046613024976129	-0.37533182570882084	65.68802477072887	0	0	0
228	1	1	-1.4093226049952285	-1.0014511669616273	66.02183162996265	0	0	0
229	1	1	-2.113983907492844	-1.0254256175340877	66.73097031490525	0	0	0
230	1	1	-2.8186452099904598	-1.6515449587868942	67.06477717413902	0	0	0
231	1	1	-3.5233065124880754	-1.6755194093593546	67.77391585908163	0	0	0
232	1	1	-4.227967814985691	-2.301638750612161	68.1077227183154	0	0	0
233	1	1	-4.932629117483307	-2.325613201184621	68.816861403258	0	0	0
234	1	1	-5.637290419980923	-2.9517325424374277	69.15066826249178	0	0	0
235	1	1	-6.341951722478539	-2.975706993009888	69.85980694743438	0	0	0
236	1	1	-7.046613024976155	-3.6018263342626944	70.19361380666815	0	0	0
237	1	1	-7.751274327473771	-3.6258007848351546	70.90275249161076	0	0	0
238	1	1	-8.455935629971387	-4.251920126087961	71.23655935084453	0	0	0
239	1	1	-9.160596932469003	-4.275894576660421	71.94569803578713	0	0	0
240	1	1	-9.86525823496662	-4.902013917913227	72.2795048950209	0	0	0
241	1	1	-10.569919537464235	-4.9259883684856876	72.98864357996351	0	0	0
242	1	1	-11.274580839961851	-5.552107709738494	73.32245043919728	0	0	0
243	1	1	-11.979242142459468	-5.576082160310954	74.03158912413988	0	0	0
244	1	1	-12.683903444957084	-6.202201501563761	74.36539598337366	0	0	0
245	1	1	-13.3885647474547	-6.226175952136221	75.07453466831626	0	0	0
246	1	1	-14.093226049952316	-6.8522952933890275	75.40834152755004	0	0	0
247	1	1	-14.797887352449932	-6.876269743961488	76.11748021249264	0	0	0
248	1	1	-15.502548654947548	-7.502389085214294	76.45128707172641	0	0	0
249	1	1	-16.207209957445162	-7.526363535786754	77.16042575666901	0	0	0
250	1	1	-16.911871259942778	-8.15248287703956	77.49423261590279	0	0	0
251	1	1	-17.616532562440394	-8.17645732761202	78.20337130084539	0	0	0
252	1	1	-18.32119386493801	-8.802576668864827	78.53717816007916	0	0	0
253	1	1	-19.025855167435626	-8.826551119437287	79.24631684502177	0	0	0
254	1	1	-19.730516469933242	-9.452670460690094	79.58012370425554	0	0	0
255	1	1	-20.43517777243086	-9.476644911262554	80.28926238919814	0	0	0
256	1	1	-21.139839074928474	-10.10276425251536	80.62306924843192	0	0	0
257	1	1	-21.84450037742609	-10.12673870308782	81.33220793337452	0	0	0
258	1	1	-22.549161679923706	-10.752858044340627	81.6660147926083	0	0	0
259	1	1	-23.253822982421323	-10.776832494913087	82.3751534775509	0	0	0
260	1	1	-23.95848428491894	-11.402951836165894	82.70896033678467	0	0	0
261	1	1	-24.663145587416555	-11.426926286738354	83.41809902172727	0	0	0
262	1	1	-25.36780688991417	-12.05304562799116	83.75190588096105	0	0	0
263	1	1	-26.072468192411787	-12.07702007856362	84.46104456590365	0	0	0
264	1	1	-26.777129494909403	-12.703139419816427	84.79485142513742	0	0	0
265	1	1	-27.48179079740702	-12.727113870388887	85.50399011008003	0	0	0
266	1	1	-28.186452099904635	-13.353233211641694	85.8377969693138	0	0	0
267	1	1	-28.89111340240225	-13.377207662214154	86.5469356542564	0	0	0
268	1	1	-29.595774704899867	-14.00332700346696	86.88074251349018	0	0	0
269	1	1	-30.300436007397483	-14.02730145403942	87.58988119843278	0	0	0
270	1	1	-31.0050973098951	-14.653420795292227	87.92368805766655	0	0	0
271	1	1	-31.709758612392715	-14.677395245864687	88.63282674260915	0	0	0
272	1	1	-32.41441991489033	-15.303514587117494	88.96663360184293	0	0	0
273	1	1	-33.119081217387944	-15.327489037689954	89.67577228678553	0	0	0
274	1	1	-33.823742519885556	-15.95360837894276	90.0095791460193	0	0	0
275	1	1	-34.52840382238317	-15.977582829515221	90.71871783096191	0	0	0
276	1	1	-35.23306512488078	-16.603702170768027	91.05252469019568	0	0	0
277	1	1	-35.937726427378394	-16.627676621340488	91.76166337513828	0	0	0
278	1	1	-36.642387729876006	-17.253795962593294	92.09547023437206	0	0	0
279	1	1	-37.34704903237362	-17.277770413165754	92.80460891931466	0	0	0
280	1	1	-38.05171033487123	-17.90388975441856	93.13841577854843	0	0	0
281	1	1	-38.756371637368844	-17.92786420499102	93.84755446349104	0	0	0
282	1	1	-39.461032939866456	-18.553983546243828	94.18136132272481	0	0	0
283	1	1	-40.16569424236407	-18.577957996816288	94.89050000766741	0	0	0
284	1	1	-40.87035554486168	-19.204077338069094	95.22430686690119	0	0	0
285	1	1	-41.575016847359294	-19.228051788641555	95.93344555184379	0	0	0
286	1	1	-42.279678149856906	-19.85417112989436	96.26725241107756	0	0	0
287	1	1	-42.98433945235452	-19.87814558046682	96.97639109602017	0	0	0
288	1	1	-43.68900075485213	-20.504264921719628	97.31019795525394	0	0	0
289	1	1	-44.393662057349744	-20.528239372292088	98.01933664019654	0	0	0
290	1	1	-45.098323359847356	-21.154358713544894	98.35314349943032	0	0	0
291	1	1	-45.80298466234497	-21.178333164117355	99.06228218437292	0	0	0
292	1	1	-46.50764596484258	-21.80445250537016	99.3960890436067	0	0	0
293	1	1	-47.212307267340194	-21.82842695594262	100.1052277285493	0	0	0
294	1	1	-47.916968569837806	-22.454546297195428	100.43903458778307	0	0	0
295	1	1	-48.62162987233542	-22.478520747767888	101.14817327272567	0	0	0
296	1	1	-49.32629117483303	-23.104640089020695	101.48198013195945	0	0	0
297	1	1	-50.03095247733064	-23.128614539593155	102.19111881690205	0	0	0
298	1	1	-50.735613779828256	-23.75473388084596	102.52492567613582	0	0	0
299	1	1	-51.44027508232587	-23.77870833141842	103.23406436107842	0	0	0
300	1	1	-52.14493638482348	-24.404827672671228	103.5678712203122	0	0	0
301	1	1	-52.84959768732109	-24.42880212324369	104.2770099052548	0	0	0

Bonds

1	1	1	2
2	1	2	3
3	1	3	4
4	1	4	5
5	1	5	6
6	1	6	7
7	1	7	8
8	1	8	9
9	1	9	10
10	1	10	11
11	1	11	12
12	1	12	13
13	1	13	14
14	1	14	15
15	1	15	16
16	1	16	17
17	1	17	18
18	1	18	19
19	1	19	20
20	1	20	21
21	1	21	22
22	1	22	23
23	1	23	24
24	1	24	25
25	1	25	26
26	1	26	27
27	1	27	28
28	1	28	29
29	1	29	30
30	1	30	31
31	1	31	32
32	1	32	33
33	1	33	34
34	1	34	35
35	1	35	36
36	1	36	37
37	1	37	38
38	1	38	39
39	1	39	40
40	1	40	41
41	1	41	42
42	1	42	43
43	1	43	44
44	1	44	45
45	1	45	46
46	1	46	47
47	1	47	48
48	1	48	49
49	1	49	50
50	1	50	51
51	1	51	52
52	1	52	53
53	1	53	54
54	1	54	55
55	1	55	56
56	1	56	57
57	1	57	58
58	1	58	59
59	1	59	60
60	1	60	61
61	1	61	62
62	1	62	63
63	1	63	64
64	1	64	65
65	1	65	66
66	1	66	67
67	1	67	68
68	1	68	69
69	1	69	70
70	1	70	71
71	1	71	72
72	1	72	73
73	1	73	74
74	1	74	75
75	1	75	76
76	1	76	77
77	1	76	152
78	1	76	227
79	1	77	78
80	1	78	79
81	1	79	80
82	1	80	81
83	1	81	82
84	1	82	83
85	1	83	84
86	1	84	85
87	1	85	86
88	1	86	87
89	1	87	88
90	1	88	89
91	1	89	90
92	1	90	91
93	1	91	92
94	1	92	93
95	1	93	94
96	1	94	95
97	1	95	96
98	1	96	97
99	1	97	98
100	1	98	99
101	1	99	100
102	1	100	101
103	1	101	102
104	1	102	103
105	1	103	104
106	1	104	105
107	1	105	106
108	1	106	107
109	1	107	108
110	1	108	109
111	1	109	110
112	1	110	111
113	1	111	112
114	1	112	113
115	1	113	114
116	1	114	115
117	1	115	116
118	1	116	117
119	1	117	118
120	1	118	119
121	1	119	120
122	1	120	121
123	1	121	122
124	1	122	123
125	1	123	124
126	1	124	125
127	1	125	126
128	1	126	127
129	1	127	128
130	1	128	129
131	1	129	130
132	1	130	131
133	1	131	132
134	1	132	133
135	1	133	134
136	1	134	135
137	1	135	136
138	1	136	137
139	1	137	138
140	1	138	139
141	1	139	140
142	1	140	141
143	1	141	142
144	1	142	143
145	1	143	144
146	1	144	145
147	1	145	146
148	1	146	147
149	1	147	148
150	1	148	149
151	1	149	150
152	1	150	151
153	1	152	153
154	1	153	154
155	1	154	155
156	1	155	156
157	1	156	157
158	1	157	158
159	1	158	159
160	1	159	160
161	1	160	161
162	1	161	162
163	1	162	163
164	1	163	164
165	1	164	165
166	1	165	166
167	1	166	167
168	1	167	168
169	1	168	169
170	1	169	170
171	1	170	171
172	1	171	172
173	1	172	173
174	1	173	174
175	1	174	175
176	1	175	176
177	1	176	177
178	1	177	178
179	1	178	179
180	1	179	180
181	1	180	181
182	1	181	182
183	1	182	183
184	1	183	184
185	1	184	185
186	1	185	186
187	1	186	187
188	1	187	188
189	1	188	189
190	1	189	190
191	1	190	191
192	1	191	192
193	1	192	193
194	1	193	194
195	1	194	195
196	1	195	196
197	1	196	197
198	1	197	198
199	1	198	199
200	1	199	200
201	1	200	201
202	1	201	202
203	1	202	203
204	1	203	204
205	1	204	205
206	1	205	206
207	1	206	207
208	1	207	208
209	1	208	209
210	1	209	210
211	1	210	211
212	1	211	212
213	1	212	213
214	1	213	214
215	1	214	215
216	1	215	216
217	1	216	217
218	1	217	218
219	1	218	219
220	1	219	220
221	1	220	221
222	1	221	222
223	1	222	223
224	1	223	224
225	1	224	225
226	1	225	226
227	1	227	228
228	1	228	229
229	1	229	230
230	1	230	231
231	1	231	232
232	1	232	233
233	1	233	234
234	1	234	235
235	1	235	236
236	1	236	237
237	1	237	238
238	1	238	239
239	1	239	240
240	1	240	241
241	1	241	242
242	1	242	243
243	1	243	244
244	1	244	245
245	1	245	246
246	1	246	247
247	1	247	248
248	1	248	249
249	1	249	250
250	1	250	251
251	1	251	252
252	1	252	253
253	1	253	254
254	1	254	255
255	1	255	256
256	1	256	257
257	1	257	258
258	1	258	259
259	1	259	260
260	1	260	261
261	1	261	262
262	1	262	263
263	1	263	264
264	1	264	265
265	1	265	266
266	1	266	267
267	1	267	268
268	1	268	269
269	1	269	270
270	1	270	271
271	1	271	272
272	1	272	273
273	1	273	274
274	1	274	275
275	1	275	276
276	1	276	277
277	1	277	278
278	1	278	279
279	1	279	280
280	1	280	281
281	1	281	282
282	1	282	283
283	1	283	284
284	1	284	285
285	1	285	286
286	1	286	287
287	1	287	288
288	1	288	289
289	1	289	290
290	1	290	291
291	1	291	292
292	1	292	293
293	1	293	294
294	1	294	295
295	1	295	296
296	1	296	297
297	1	297	298
298	1	298	299
299	1	299	300
300	1	300	301

Angles

1	1	1	2	3
2	1	2	3	4
3	1	3	4	5
4	1	4	5	6
5	1	5	6	7
6	1	6	7	8
7	1	7	8	9
8	1	8	9	10
9	1	9	10	11
10	1	10	11	12
11	1	11	12	13
12	1	12	13	14
13	1	13	14	15
14	1	14	15	16
15	1	15	16	17
16	1	16	17	18
17	1	17	18	19
18	1	18	19	20
19	1	19	20	21
20	1	20	21	22
21	1	21	22	23
22	1	22	23	24
23	1	23	24	25
24	1	24	25	26
25	1	25	26	27
26	1	26	27	28
27	1	27	28	29
28	1	28	29	30
29	1	29	30	31
30	1	30	31	32
31	1	31	32	33
32	1	32	33	34
33	1	33	34	35
34	1	34	35	36
35	1	35	36	37
36	1	36	37	38
37	1	37	38	39
38	1	38	39	40
39	1	39	40	41
40	1	40	41	42
41	1	41	42	43
42	1	42	43	44
43	1	43	44	45
44	1	44	45	46
45	1	45	46	47
46	1	46	47	48
47	1	47	48	49
48	1	48	49	50
49	1	49	50	51
50	1	50	51	52
51	1	51	52	53
52	1	52	53	54
53	1	53	54	55
54	1	54	55	56
55	1	55	56	57
56	1	56	57	58
57	1	57	58	59
58	1	58	59	60
59	1	59	60	61
60	1	60	61	62
61	1	61	62	63
62	1	62	63	64
63	1	63	64	65
64	1	64	65	66
65	1	65	66	67
66	1	66	67	68
67	1	67	68	69
68	1	68	69	70
69	1	69	70	71
70	1	70	71	72
71	1	71	72	73
72	1	72	73	74
73	1	73	74	75
74	1	74	75	76
75	1	75	76	77
76	1	75	76	152
77	1	75	76	227
78	1	76	77	78
79	1	76	152	153
80	1	76	227	228
81	1	77	76	152
82	1	77	76	227
83	1	77	78	79
84	1	78	79	80
85	1	79	80	81
86	1	80	81	82
87	1	81	82	83
88	1	82	83	84
89	1	83	84	85
90	1	84	85	86
91	1	85	86	87
92	1	86	87	88
93	1	87	88	89
94	1	88	89	90
95	1	89	90	91
96	1	90	91	92
97	1	91	92	93
98	1	92	93	94
99	1	93	94	95
100	1	94	95	96
101	1	95	96	97
102	1	96	97	98
103	1	97	98	99
104	1	98	99	100
105	1	99	100	101
106	1	100	101	102
107	1	101	102	103
108	1	102	103	104
109	1	103	104	105
110	1	104	105	106
111	1	105	106	107
112	1	106	107	108
113	1	107	108	109
114	1	108	109	110
115	1	109	110	111
116	1	110	111	112
117	1	111	112	113
118	1	112	113	114
119	1	113	114	115
120	1	114	115	116
121	1	115	116	117
122	1	116	117	118
123	1	117	118	119
124	1	118	119	120
125	1	119	120	121
126	1	120	121	122
127	1	121	122	123
128	1	122	123	124
129	1	123	124	125
130	1	124	125	126
131	1	125	126	127
132	1	126	127	128
133	1	127	128	129
134	1	128	129	130
135	1	129	130	131
136	1	130	131	132
137	1	131	132	133
138	1	132	133	134
139	1	133	134	135
140	1	134	135	136
141	1	135	136	137
142	1	136	137	138
143	1	137	138	139
144	1	138	139	140
145	1	139	140	141
146	1	140	141	142
147	1	141	142	143
148	1	142	143	144
149	1	143	144	145
150	1	144	145	146
151	1	145	146	147
152	1	146	147	148
153	1	147	148	149
154	1	148	149	150
155	1	149	150	151
156	1	152	76	227
157	1	152	153	154
158	1	153	154	155
159	1	154	155	156
160	1	155	156	157
161	1	156	157	158
162	1	157	158	159
163	1	158	159	160
164	1	159	160	161
165	1	160	161	162
166	1	161	162	163
167	1	162	163	164
168	1	163	164	165
169	1	164	165	166
170	1	165	166	167
171	1	166	167	168
172	1	167	168	169
173	1	168	169	170
174	1	169	170	171
175	1	170	171	172
176	1	171	172	173
177	1	172	173	174
178	1	173	174	175
179	1	174	175	176
180	1	175	176	177
181	1	176	177	178
182	1	177	178	179
183	1	178	179	180
184	1	179	180	181
185	1	180	181	182
186	1	181	182	183
187	1	182	183	184
188	1	183	184	185
189	1	184	185	186
190	1	185	186	187
191	1	186	187	188
192	1	187	188	189
193	1	188	189	190
194	1	189	190	191
195	1	190	191	192
196	1	191	192	193
197	1	192	193	194
198	1	193	194	195
199	1	194	195	196
200	1	195	196	197
201	1	196	197	198
202	1	197	198	199
203	1	198	199	200
204	1	199	200	201
205	1	200	201	202
206	1	201	202	203
207	1	202	203	204
208	1	203	204	205
209	1	204	205	206
210	1	205	206	207
211	1	206	207	208
212	1	207	208	209
213	1	208	209	210
214	1	209	210	211
215	1	210	211	212
216	1	211	212	213
217	1	212	213	214
218	1	213	214	215
219	1	214	215	216
220	1	215	216	217
221	1	216	217	218
222	1	217	218	219
223	1	218	219	220
224	1	219	220	221
225	1	220	221	222
226	1	221	222	223
227	1	222	223	224
228	1	223	224	225
229	1	224	225	226
230	1	227	228	229
231	1	228	229	230
232	1	229	230	231
233	1	230	231	232
234	1	231	232	233
235	1	232	233	234
236	1	233	234	235
237	1	234	235	236
238	1	235	236	237
239	1	236	237	238
240	1	237	238	239
241	1	238	239	240
242	1	239	240	241
243	1	240	241	242
244	1	241	242	243
245	1	242	243	244
246	1	243	244	245
247	1	244	245	246
248	1	245	246	247
249	1	246	247	248
250	1	247	248	249
251	1	248	249	250
252	1	249	250	251
253	1	250	251	252
254	1	251	252	253
255	1	252	253	254
256	1	253	254	255
257	1	254	255	256
258	1	255	256	257
259	1	256	257	258
260	1	257	258	259
261	1	258	259	260
262	1	259	260	261
263	1	260	261	262
264	1	261	262	263
265	1	262	263	264
266	1	263	264	265
267	1	264	265	266
268	1	265	266	267
269	1	266	267	268
270	1	267	268	269
271	1	268	269	270
272	1	269	270	271
273	1	270	271	272
274	1	271	272	273
275	1	272	273	274
276	1	273	274	275
277	1	274	275	276
278	1	275	276	277
279	1	276	277	278
280	1	277	278	279
281	1	278	279	280
282	1	279	280	281
283	1	280	281	282
284	1	281	282	283
285	1	282	283	284
286	1	283	284	285
287	1	284	285	286
288	1	285	286	287
289	1	286	287	288
290	1	287	288	289
291	1	288	289	290
292	1	289	290	291
293	1	290	291	292
294	1	291	292	293
295	1	292	293	294
296	1	293	294	295
297	1	294	295	296
298	1	295	296	297
299	1	296	297	298
300	1	297	298	299
301	1	298	299	300
302	1	299	300	301
