bb201nuc1bl100bn4d30tot400V2

401 atoms
400 bonds
402 angles

1 atom types
1 bond types
1 angle types

-1000 1000 xlo xhi
-1000 1000 ylo yhi
-1000 1000 zlo zhi

Masses

1 1

Atoms

1	1	1	0.0	0.0	0.0	0	0	0
2	1	1	0.0	0.0	1.0	0	0	0
3	1	1	0.0	-0.49999999999999994	1.8660254037844388	0	0	0
4	1	1	0.0	0.0	2.7320508075688776	0	0	0
5	1	1	0.0	-0.49999999999999994	3.5980762113533165	0	0	0
6	1	1	0.0	0.0	4.464101615137755	0	0	0
7	1	1	0.0	-0.49999999999999994	5.330127018922194	0	0	0
8	1	1	0.0	0.0	6.196152422706632	0	0	0
9	1	1	0.0	-0.49999999999999994	7.06217782649107	0	0	0
10	1	1	0.0	0.0	7.928203230275509	0	0	0
11	1	1	0.0	-0.49999999999999994	8.794228634059948	0	0	0
12	1	1	0.0	0.0	9.660254037844387	0	0	0
13	1	1	0.0	-0.49999999999999994	10.526279441628827	0	0	0
14	1	1	0.0	0.0	11.392304845413266	0	0	0
15	1	1	0.0	-0.49999999999999994	12.258330249197705	0	0	0
16	1	1	0.0	0.0	13.124355652982144	0	0	0
17	1	1	0.0	-0.49999999999999994	13.990381056766584	0	0	0
18	1	1	0.0	0.0	14.856406460551023	0	0	0
19	1	1	0.0	-0.49999999999999994	15.722431864335462	0	0	0
20	1	1	0.0	0.0	16.5884572681199	0	0	0
21	1	1	0.0	-0.49999999999999994	17.454482671904337	0	0	0
22	1	1	0.0	0.0	18.320508075688775	0	0	0
23	1	1	0.0	-0.49999999999999994	19.186533479473212	0	0	0
24	1	1	0.0	0.0	20.05255888325765	0	0	0
25	1	1	0.0	-0.49999999999999994	20.918584287042087	0	0	0
26	1	1	0.0	0.0	21.784609690826525	0	0	0
27	1	1	0.0	-0.49999999999999994	22.650635094610962	0	0	0
28	1	1	0.0	0.0	23.5166604983954	0	0	0
29	1	1	0.0	-0.49999999999999994	24.382685902179837	0	0	0
30	1	1	0.0	0.0	25.248711305964274	0	0	0
31	1	1	0.0	-0.49999999999999994	26.114736709748712	0	0	0
32	1	1	0.0	0.0	26.98076211353315	0	0	0
33	1	1	0.0	-0.49999999999999994	27.846787517317587	0	0	0
34	1	1	0.0	0.0	28.712812921102024	0	0	0
35	1	1	0.0	-0.49999999999999994	29.578838324886462	0	0	0
36	1	1	0.0	0.0	30.4448637286709	0	0	0
37	1	1	0.0	-0.49999999999999994	31.310889132455337	0	0	0
38	1	1	0.0	0.0	32.17691453623978	0	0	0
39	1	1	0.0	-0.49999999999999994	33.04293994002422	0	0	0
40	1	1	0.0	0.0	33.90896534380866	0	0	0
41	1	1	0.0	-0.49999999999999994	34.7749907475931	0	0	0
42	1	1	0.0	0.0	35.64101615137754	0	0	0
43	1	1	0.0	-0.49999999999999994	36.50704155516198	0	0	0
44	1	1	0.0	0.0	37.373066958946424	0	0	0
45	1	1	0.0	-0.49999999999999994	38.239092362730865	0	0	0
46	1	1	0.0	0.0	39.105117766515306	0	0	0
47	1	1	0.0	-0.49999999999999994	39.97114317029975	0	0	0
48	1	1	0.0	0.0	40.83716857408419	0	0	0
49	1	1	0.0	-0.49999999999999994	41.70319397786863	0	0	0
50	1	1	0.0	0.0	42.56921938165307	0	0	0
51	1	1	0.0	-0.49999999999999994	43.43524478543751	0	0	0
52	1	1	0.0	0.0	44.30127018922195	0	0	0
53	1	1	0.0	-0.49999999999999994	45.16729559300639	0	0	0
54	1	1	0.0	0.0	46.033320996790835	0	0	0
55	1	1	0.0	-0.49999999999999994	46.899346400575276	0	0	0
56	1	1	0.0	0.0	47.76537180435972	0	0	0
57	1	1	0.0	-0.49999999999999994	48.63139720814416	0	0	0
58	1	1	0.0	0.0	49.4974226119286	0	0	0
59	1	1	0.0	-0.49999999999999994	50.36344801571304	0	0	0
60	1	1	0.0	0.0	51.22947341949748	0	0	0
61	1	1	0.0	-0.49999999999999994	52.09549882328192	0	0	0
62	1	1	0.0	0.0	52.96152422706636	0	0	0
63	1	1	0.0	-0.49999999999999994	53.827549630850804	0	0	0
64	1	1	0.0	0.0	54.693575034635245	0	0	0
65	1	1	0.0	-0.49999999999999994	55.559600438419686	0	0	0
66	1	1	0.0	0.0	56.42562584220413	0	0	0
67	1	1	0.0	-0.49999999999999994	57.29165124598857	0	0	0
68	1	1	0.0	0.0	58.15767664977301	0	0	0
69	1	1	0.0	-0.49999999999999994	59.02370205355745	0	0	0
70	1	1	0.0	0.0	59.88972745734189	0	0	0
71	1	1	0.0	-0.49999999999999994	60.75575286112633	0	0	0
72	1	1	0.0	0.0	61.62177826491077	0	0	0
73	1	1	0.0	-0.49999999999999994	62.487803668695214	0	0	0
74	1	1	0.0	0.0	63.353829072479655	0	0	0
75	1	1	0.0	-0.49999999999999994	64.21985447626409	0	0	0
76	1	1	0.0	0.0	65.08587988004852	0	0	0
77	1	1	0.0	-0.49999999999999994	65.95190528383296	0	0	0
78	1	1	0.0	0.0	66.81793068761739	0	0	0
79	1	1	0.0	-0.49999999999999994	67.68395609140183	0	0	0
80	1	1	0.0	0.0	68.54998149518626	0	0	0
81	1	1	0.0	-0.49999999999999994	69.41600689897069	0	0	0
82	1	1	0.0	0.0	70.28203230275513	0	0	0
83	1	1	0.0	-0.49999999999999994	71.14805770653956	0	0	0
84	1	1	0.0	0.0	72.014083110324	0	0	0
85	1	1	0.0	-0.49999999999999994	72.88010851410843	0	0	0
86	1	1	0.0	0.0	73.74613391789286	0	0	0
87	1	1	0.0	-0.49999999999999994	74.6121593216773	0	0	0
88	1	1	0.0	0.0	75.47818472546173	0	0	0
89	1	1	0.0	-0.49999999999999994	76.34421012924616	0	0	0
90	1	1	0.0	0.0	77.2102355330306	0	0	0
91	1	1	0.0	-0.49999999999999994	78.07626093681503	0	0	0
92	1	1	0.0	0.0	78.94228634059947	0	0	0
93	1	1	0.0	-0.49999999999999994	79.8083117443839	0	0	0
94	1	1	0.0	0.0	80.67433714816833	0	0	0
95	1	1	0.0	-0.49999999999999994	81.54036255195277	0	0	0
96	1	1	0.0	0.0	82.4063879557372	0	0	0
97	1	1	0.0	-0.49999999999999994	83.27241335952164	0	0	0
98	1	1	0.0	0.0	84.13843876330607	0	0	0
99	1	1	0.0	-0.49999999999999994	85.0044641670905	0	0	0
100	1	1	0.0	0.0	85.87048957087494	0	0	0
101	1	1	0.0	-0.49999999999999994	86.73651497465937	0	0	0
102	1	1	0.9396098314242065	-0.732323297123546	86.987830016598	0	0	0
103	1	1	1.879219662848417	-1.0591786952928086	87.08931357870821	0	0	0
104	1	1	2.8188294942726273	-1.13471905152345	87.42312043794199	0	0	0
105	1	1	3.7584393256968376	-1.4615744496927126	87.52460400005221	0	0	0
106	1	1	4.698049157121048	-1.537114805923354	87.85841085928598	0	0	0
107	1	1	5.637658988545258	-1.8639702040926165	87.9598944213962	0	0	0
108	1	1	6.577268819969468	-1.9395105603232579	88.29370128062997	0	0	0
109	1	1	7.516878651393679	-2.2663659584925204	88.39518484274019	0	0	0
110	1	1	8.456488482817889	-2.341906314723162	88.72899170197397	0	0	0
111	1	1	9.3960983142421	-2.6687617128924246	88.83047526408419	0	0	0
112	1	1	10.33570814566631	-2.7443020691230657	89.16428212331796	0	0	0
113	1	1	11.27531797709052	-3.0711574672923283	89.26576568542818	0	0	0
114	1	1	12.21492780851473	-3.1466978235229695	89.59957254466195	0	0	0
115	1	1	13.15453763993894	-3.473553221692232	89.70105610677217	0	0	0
116	1	1	14.09414747136315	-3.549093577922873	90.03486296600595	0	0	0
117	1	1	15.033757302787361	-3.8759489760921357	90.13634652811616	0	0	0
118	1	1	15.973367134211571	-3.951489332322777	90.47015338734994	0	0	0
119	1	1	16.91297696563578	-4.278344730492039	90.57163694946016	0	0	0
120	1	1	17.852586797059992	-4.353885086722681	90.90544380869393	0	0	0
121	1	1	18.792196628484202	-4.680740484891944	91.00692737080415	0	0	0
122	1	1	19.731806459908412	-4.756280841122585	91.34073423003792	0	0	0
123	1	1	20.671416291332623	-5.083136239291848	91.44221779214814	0	0	0
124	1	1	21.611026122756833	-5.15867659552249	91.77602465138192	0	0	0
125	1	1	22.550635954181043	-5.485531993691753	91.87750821349213	0	0	0
126	1	1	23.490245785605254	-5.561072349922394	92.21131507272591	0	0	0
127	1	1	24.429855617029464	-5.887927748091657	92.31279863483613	0	0	0
128	1	1	25.369465448453674	-5.963468104322299	92.6466054940699	0	0	0
129	1	1	26.309075279877884	-6.290323502491562	92.74808905618012	0	0	0
130	1	1	27.248685111302095	-6.365863858722204	93.0818959154139	0	0	0
131	1	1	28.188294942726305	-6.692719256891467	93.18337947752411	0	0	0
132	1	1	29.127904774150515	-6.768259613122108	93.51718633675789	0	0	0
133	1	1	30.067514605574726	-7.095115011291371	93.6186698988681	0	0	0
134	1	1	31.007124436998936	-7.170655367522013	93.95247675810188	0	0	0
135	1	1	31.946734268423146	-7.497510765691276	94.0539603202121	0	0	0
136	1	1	32.886344099847356	-7.573051121921917	94.38776717944587	0	0	0
137	1	1	33.82595393127157	-7.89990652009118	94.48925074155609	0	0	0
138	1	1	34.765563762695784	-7.975446876321822	94.82305760078987	0	0	0
139	1	1	35.70517359412	-8.302302274491085	94.92454116290008	0	0	0
140	1	1	36.64478342554421	-8.377842630721727	95.25834802213386	0	0	0
141	1	1	37.584393256968426	-8.70469802889099	95.35983158424408	0	0	0
142	1	1	38.52400308839264	-8.780238385121631	95.69363844347785	0	0	0
143	1	1	39.46361291981685	-9.107093783290894	95.79512200558807	0	0	0
144	1	1	40.40322275124107	-9.182634139521536	96.12892886482184	0	0	0
145	1	1	41.34283258266528	-9.509489537690799	96.23041242693206	0	0	0
146	1	1	42.282442414089495	-9.58502989392144	96.56421928616584	0	0	0
147	1	1	43.22205224551371	-9.911885292090703	96.66570284827606	0	0	0
148	1	1	44.16166207693792	-9.987425648321345	96.99950970750983	0	0	0
149	1	1	45.101271908362136	-10.314281046490608	97.10099326962005	0	0	0
150	1	1	46.04088173978635	-10.38982140272125	97.43480012885382	0	0	0
151	1	1	46.980491571210564	-10.716676800890513	97.53628369096404	0	0	0
152	1	1	47.92010140263478	-10.792217157121154	97.87009055019782	0	0	0
153	1	1	48.85971123405899	-11.119072555290417	97.97157411230803	0	0	0
154	1	1	49.799321065483205	-11.194612911521059	98.30538097154181	0	0	0
155	1	1	50.73893089690742	-11.521468309690322	98.40686453365203	0	0	0
156	1	1	51.67854072833163	-11.597008665920963	98.7406713928858	0	0	0
157	1	1	52.61815055975585	-11.923864064090226	98.84215495499602	0	0	0
158	1	1	53.55776039118006	-11.999404420320868	99.1759618142298	0	0	0
159	1	1	54.497370222604275	-12.326259818490131	99.27744537634001	0	0	0
160	1	1	55.43698005402849	-12.401800174720773	99.61125223557379	0	0	0
161	1	1	56.3765898854527	-12.728655572890036	99.712735797684	0	0	0
162	1	1	57.316199716876916	-12.804195929120677	100.04654265691778	0	0	0
163	1	1	58.25580954830113	-13.13105132728994	100.148026219028	0	0	0
164	1	1	59.195419379725344	-13.206591683520582	100.48183307826177	0	0	0
165	1	1	60.13502921114956	-13.533447081689845	100.58331664037199	0	0	0
166	1	1	61.07463904257377	-13.608987437920486	100.91712349960576	0	0	0
167	1	1	62.014248873997985	-13.93584283608975	101.01860706171598	0	0	0
168	1	1	62.9538587054222	-14.011383192320391	101.35241392094976	0	0	0
169	1	1	63.89346853684641	-14.338238590489654	101.45389748305998	0	0	0
170	1	1	64.83307836827062	-14.413778946720296	101.78770434229375	0	0	0
171	1	1	65.77268819969483	-14.740634344889559	101.88918790440397	0	0	0
172	1	1	66.71229803111903	-14.8161747011202	102.22299476363774	0	0	0
173	1	1	67.65190786254324	-15.143030099289463	102.32447832574796	0	0	0
174	1	1	68.59151769396745	-15.218570455520105	102.65828518498174	0	0	0
175	1	1	69.53112752539165	-15.545425853689368	102.75976874709195	0	0	0
176	1	1	70.47073735681586	-15.62096620992001	103.09357560632573	0	0	0
177	1	1	71.41034718824007	-15.947821608089273	103.19505916843595	0	0	0
178	1	1	72.34995701966427	-16.023361964319914	103.52886602766972	0	0	0
179	1	1	73.28956685108848	-16.350217362489175	103.63034958977994	0	0	0
180	1	1	74.22917668251269	-16.425757718719815	103.96415644901371	0	0	0
181	1	1	75.1687865139369	-16.752613116889076	104.06564001112393	0	0	0
182	1	1	76.1083963453611	-16.828153473119716	104.3994468703577	0	0	0
183	1	1	77.04800617678531	-17.155008871288977	104.50093043246792	0	0	0
184	1	1	77.98761600820951	-17.230549227519617	104.8347372917017	0	0	0
185	1	1	78.92722583963372	-17.55740462568888	104.93622085381192	0	0	0
186	1	1	79.86683567105793	-17.63294498191952	105.27002771304569	0	0	0
187	1	1	80.80644550248213	-17.95980038008878	105.37151127515591	0	0	0
188	1	1	81.74605533390634	-18.03534073631942	105.70531813438969	0	0	0
189	1	1	82.68566516533055	-18.36219613448868	105.8068016964999	0	0	0
190	1	1	83.62527499675475	-18.43773649071932	106.14060855573368	0	0	0
191	1	1	84.56488482817896	-18.76459188888858	106.2420921178439	0	0	0
192	1	1	85.50449465960317	-18.84013224511922	106.57589897707767	0	0	0
193	1	1	86.44410449102737	-19.166987643288483	106.67738253918789	0	0	0
194	1	1	87.38371432245158	-19.242527999519123	107.01118939842166	0	0	0
195	1	1	88.32332415387579	-19.569383397688384	107.11267296053188	0	0	0
196	1	1	89.2629339853	-19.644923753919024	107.44647981976566	0	0	0
197	1	1	90.2025438167242	-19.971779152088285	107.54796338187587	0	0	0
198	1	1	91.14215364814841	-20.047319508318925	107.88177024110965	0	0	0
199	1	1	92.08176347957261	-20.374174906488186	107.98325380321987	0	0	0
200	1	1	93.02137331099682	-20.449715262718826	108.31706066245364	0	0	0
201	1	1	93.96098314242103	-20.776570660888087	108.41854422456386	0	0	0
202	1	1	-0.5352247832187569	-1.3389008694317135	86.63762229194148	0	0	0
203	1	1	-1.070449566437516	-2.015963992257487	86.13252828174353	0	0	0
204	1	1	-1.605674349656275	-2.7919197978011527	86.46633514097731	0	0	0
205	1	1	-2.140899132875034	-3.4689829206269263	85.96124113077936	0	0	0
206	1	1	-2.6761239160937933	-4.2449387261705915	86.29504799001313	0	0	0
207	1	1	-3.2113486993125524	-4.922001848996365	85.78995397981518	0	0	0
208	1	1	-3.7465734825313115	-5.69795765454003	86.12376083904896	0	0	0
209	1	1	-4.28179826575007	-6.375020777365803	85.618666828851	0	0	0
210	1	1	-4.81702304896883	-7.150976582909468	85.95247368808478	0	0	0
211	1	1	-5.352247832187588	-7.828039705735241	85.44737967788683	0	0	0
212	1	1	-5.887472615406347	-8.603995511278907	85.7811865371206	0	0	0
213	1	1	-6.422697398625106	-9.28105863410468	85.27609252692265	0	0	0
214	1	1	-6.957922181843864	-10.057014439648345	85.60989938615643	0	0	0
215	1	1	-7.493146965062623	-10.734077562474118	85.10480537595848	0	0	0
216	1	1	-8.028371748281382	-11.510033368017783	85.43861223519225	0	0	0
217	1	1	-8.56359653150014	-12.187096490843556	84.9335182249943	0	0	0
218	1	1	-9.098821314718899	-12.963052296387222	85.26732508422808	0	0	0
219	1	1	-9.634046097937658	-13.640115419212995	84.76223107403013	0	0	0
220	1	1	-10.169270881156416	-14.41607122475666	85.0960379332639	0	0	0
221	1	1	-10.704495664375175	-15.093134347582433	84.59094392306595	0	0	0
222	1	1	-11.239720447593934	-15.869090153126098	84.92475078229972	0	0	0
223	1	1	-11.774945230812692	-16.546153275951873	84.41965677210177	0	0	0
224	1	1	-12.310170014031451	-17.32210908149554	84.75346363133555	0	0	0
225	1	1	-12.84539479725021	-17.999172204321315	84.2483696211376	0	0	0
226	1	1	-13.380619580468968	-18.775128009864982	84.58217648037137	0	0	0
227	1	1	-13.915844363687727	-19.452191132690757	84.07708247017342	0	0	0
228	1	1	-14.451069146906486	-20.228146938234424	84.4108893294072	0	0	0
229	1	1	-14.986293930125244	-20.9052100610602	83.90579531920925	0	0	0
230	1	1	-15.521518713344003	-21.681165866603866	84.23960217844302	0	0	0
231	1	1	-16.056743496562763	-22.35822898942964	83.73450816824507	0	0	0
232	1	1	-16.591968279781522	-23.134184794973308	84.06831502747885	0	0	0
233	1	1	-17.12719306300028	-23.811247917799083	83.5632210172809	0	0	0
234	1	1	-17.66241784621904	-24.58720372334275	83.89702787651467	0	0	0
235	1	1	-18.197642629437798	-25.264266846168525	83.39193386631672	0	0	0
236	1	1	-18.732867412656557	-26.04022265171219	83.7257407255505	0	0	0
237	1	1	-19.268092195875315	-26.717285774537967	83.22064671535254	0	0	0
238	1	1	-19.803316979094074	-27.493241580081634	83.55445357458632	0	0	0
239	1	1	-20.338541762312833	-28.17030470290741	83.04935956438837	0	0	0
240	1	1	-20.87376654553159	-28.946260508451076	83.38316642362214	0	0	0
241	1	1	-21.40899132875035	-29.62332363127685	82.87807241342419	0	0	0
242	1	1	-21.94421611196911	-30.399279436820517	83.21187927265797	0	0	0
243	1	1	-22.479440895187867	-31.076342559646292	82.70678526246002	0	0	0
244	1	1	-23.014665678406626	-31.85229836518996	83.04059212169379	0	0	0
245	1	1	-23.549890461625385	-32.52936148801573	82.53549811149584	0	0	0
246	1	1	-24.085115244844143	-33.3053172935594	82.86930497072962	0	0	0
247	1	1	-24.620340028062902	-33.98238041638517	82.36421096053166	0	0	0
248	1	1	-25.15556481128166	-34.758336221928836	82.69801781976544	0	0	0
249	1	1	-25.69078959450042	-35.43539934475461	82.19292380956749	0	0	0
250	1	1	-26.226014377719178	-36.211355150298274	82.52673066880126	0	0	0
251	1	1	-26.761239160937937	-36.888418273124046	82.02163665860331	0	0	0
252	1	1	-27.296463944156695	-37.66437407866771	82.35544351783709	0	0	0
253	1	1	-27.831688727375454	-38.341437201493484	81.85034950763914	0	0	0
254	1	1	-28.366913510594213	-39.11739300703715	82.18415636687291	0	0	0
255	1	1	-28.90213829381297	-39.79445612986292	81.67906235667496	0	0	0
256	1	1	-29.43736307703173	-40.57041193540659	82.01286921590874	0	0	0
257	1	1	-29.97258786025049	-41.24747505823236	81.50777520571079	0	0	0
258	1	1	-30.507812643469247	-42.02343086377603	81.84158206494456	0	0	0
259	1	1	-31.043037426688006	-42.7004939866018	81.33648805474661	0	0	0
260	1	1	-31.578262209906764	-43.476449792145466	81.67029491398038	0	0	0
261	1	1	-32.11348699312553	-44.15351291497124	81.16520090378243	0	0	0
262	1	1	-32.648711776344285	-44.929468720514905	81.49900776301621	0	0	0
263	1	1	-33.183936559563044	-45.606531843340676	80.99391375281826	0	0	0
264	1	1	-33.7191613427818	-46.38248764888434	81.32772061205203	0	0	0
265	1	1	-34.25438612600056	-47.059550771710114	80.82262660185408	0	0	0
266	1	1	-34.78961090921932	-47.83550657725378	81.15643346108786	0	0	0
267	1	1	-35.32483569243808	-48.51256970007955	80.6513394508899	0	0	0
268	1	1	-35.86006047565684	-49.28852550562322	80.98514631012368	0	0	0
269	1	1	-36.395285258875596	-49.96558862844899	80.48005229992573	0	0	0
270	1	1	-36.930510042094355	-50.74154443399266	80.8138591591595	0	0	0
271	1	1	-37.46573482531311	-51.41860755681843	80.30876514896156	0	0	0
272	1	1	-38.00095960853187	-52.194563362362096	80.64257200819533	0	0	0
273	1	1	-38.53618439175063	-52.87162648518787	80.13747799799738	0	0	0
274	1	1	-39.07140917496939	-53.647582290731535	80.47128485723115	0	0	0
275	1	1	-39.60663395818815	-54.324645413557306	79.9661908470332	0	0	0
276	1	1	-40.14185874140691	-55.10060121910097	80.29999770626698	0	0	0
277	1	1	-40.677083524625665	-55.777664341926744	79.79490369606903	0	0	0
278	1	1	-41.212308307844424	-56.55362014747041	80.1287105553028	0	0	0
279	1	1	-41.74753309106318	-57.23068327029618	79.62361654510485	0	0	0
280	1	1	-42.28275787428194	-58.00663907583985	79.95742340433863	0	0	0
281	1	1	-42.8179826575007	-58.68370219866562	79.45232939414068	0	0	0
282	1	1	-43.35320744071946	-59.45965800420929	79.78613625337445	0	0	0
283	1	1	-43.88843222393822	-60.13672112703506	79.2810422431765	0	0	0
284	1	1	-44.423657007156976	-60.91267693257873	79.61484910241028	0	0	0
285	1	1	-44.958881790375735	-61.5897400554045	79.10975509221232	0	0	0
286	1	1	-45.49410657359449	-62.365695860948165	79.4435619514461	0	0	0
287	1	1	-46.02933135681325	-63.042758983773936	78.93846794124815	0	0	0
288	1	1	-46.56455614003201	-63.8187147893176	79.27227480048192	0	0	0
289	1	1	-47.09978092325077	-64.49577791214338	78.76718079028397	0	0	0
290	1	1	-47.63500570646953	-65.27173371768704	79.10098764951775	0	0	0
291	1	1	-48.17023048968829	-65.94879684051281	78.5958936393198	0	0	0
292	1	1	-48.705455272907045	-66.72475264605647	78.92970049855357	0	0	0
293	1	1	-49.240680056125804	-67.40181576888224	78.42460648835562	0	0	0
294	1	1	-49.77590483934456	-68.1777715744259	78.7584133475894	0	0	0
295	1	1	-50.31112962256332	-68.85483469725168	78.25331933739145	0	0	0
296	1	1	-50.84635440578208	-69.63079050279534	78.58712619662522	0	0	0
297	1	1	-51.38157918900084	-70.3078536256211	78.08203218642727	0	0	0
298	1	1	-51.9168039722196	-71.08380943116477	78.41583904566104	0	0	0
299	1	1	-52.452028755438356	-71.76087255399054	77.9107450354631	0	0	0
300	1	1	-52.987253538657114	-72.5368283595342	78.24455189469687	0	0	0
301	1	1	-53.52247832187587	-73.21389148235997	77.73945788449892	0	0	0
302	1	1	-0.40438504820545823	0.07051387770459255	87.45134827560045	0	0	0
303	1	1	-0.808770096410918	0.20717673853779517	88.35566901253883	0	0	0
304	1	1	-1.2131551446163777	1.0586729003120876	88.6894758717726	0	0	0
305	1	1	-1.6175401928218376	1.1953357611452902	89.59379660871097	0	0	0
306	1	1	-2.021925241027297	2.0468319229195826	89.92760346794475	0	0	0
307	1	1	-2.426310289232757	2.1834947837527854	90.83192420488312	0	0	0
308	1	1	-2.8306953374382164	3.0349909455270776	91.1657310641169	0	0	0
309	1	1	-3.235080385643676	3.1716538063602804	92.07005180105527	0	0	0
310	1	1	-3.6394654338491357	4.023149968134573	92.40385866028905	0	0	0
311	1	1	-4.043850482054595	4.159812828967775	93.30817939722742	0	0	0
312	1	1	-4.448235530260055	5.011308990742068	93.6419862564612	0	0	0
313	1	1	-4.8526205784655145	5.14797185157527	94.54630699339957	0	0	0
314	1	1	-5.257005626670974	5.999468013349563	94.88011385263334	0	0	0
315	1	1	-5.661390674876434	6.136130874182765	95.78443458957172	0	0	0
316	1	1	-6.065775723081893	6.987627035957058	96.11824144880549	0	0	0
317	1	1	-6.470160771287353	7.12428989679026	97.02256218574387	0	0	0
318	1	1	-6.874545819492813	7.975786058564553	97.35636904497764	0	0	0
319	1	1	-7.278930867698272	8.112448919397755	98.26068978191601	0	0	0
320	1	1	-7.683315915903732	8.963945081172048	98.59449664114979	0	0	0
321	1	1	-8.087700964109192	9.10060794200525	99.49881737808816	0	0	0
322	1	1	-8.492086012314653	9.952104103779543	99.83262423732194	0	0	0
323	1	1	-8.896471060520113	10.088766964612747	100.73694497426031	0	0	0
324	1	1	-9.300856108725574	10.94026312638704	101.07075183349409	0	0	0
325	1	1	-9.705241156931034	11.076925987220243	101.97507257043246	0	0	0
326	1	1	-10.109626205136495	11.928422148994535	102.30887942966623	0	0	0
327	1	1	-10.514011253341955	12.065085009827738	103.21320016660461	0	0	0
328	1	1	-10.918396301547416	12.916581171602031	103.54700702583838	0	0	0
329	1	1	-11.322781349752876	13.053244032435234	104.45132776277676	0	0	0
330	1	1	-11.727166397958337	13.904740194209527	104.78513462201053	0	0	0
331	1	1	-12.131551446163797	14.04140305504273	105.6894553589489	0	0	0
332	1	1	-12.535936494369258	14.892899216817023	106.02326221818268	0	0	0
333	1	1	-12.940321542574718	15.029562077650226	106.92758295512105	0	0	0
334	1	1	-13.344706590780179	15.881058239424519	107.26138981435483	0	0	0
335	1	1	-13.74909163898564	16.01772110025772	108.1657105512932	0	0	0
336	1	1	-14.1534766871911	16.869217262032013	108.49951741052698	0	0	0
337	1	1	-14.55786173539656	17.005880122865214	109.40383814746535	0	0	0
338	1	1	-14.962246783602021	17.857376284639507	109.73764500669913	0	0	0
339	1	1	-15.366631831807481	17.99403914547271	110.6419657436375	0	0	0
340	1	1	-15.771016880012942	18.845535307247	110.97577260287127	0	0	0
341	1	1	-16.175401928218403	18.982198168080203	111.88009333980965	0	0	0
342	1	1	-16.57978697642386	19.833694329854495	112.21390019904342	0	0	0
343	1	1	-16.98417202462932	19.970357190687697	113.1182209359818	0	0	0
344	1	1	-17.38855707283478	20.82185335246199	113.45202779521557	0	0	0
345	1	1	-17.792942121040237	20.95851621329519	114.35634853215394	0	0	0
346	1	1	-18.197327169245696	21.810012375069483	114.69015539138772	0	0	0
347	1	1	-18.601712217451155	21.946675235902685	115.5944761283261	0	0	0
348	1	1	-19.006097265656614	22.798171397676978	115.92828298755987	0	0	0
349	1	1	-19.410482313862072	22.93483425851018	116.83260372449824	0	0	0
350	1	1	-19.81486736206753	23.78633042028447	117.16641058373202	0	0	0
351	1	1	-20.21925241027299	23.922993281117673	118.07073132067039	0	0	0
352	1	1	-20.62363745847845	24.774489442891966	118.40453817990416	0	0	0
353	1	1	-21.028022506683907	24.911152303725167	119.30885891684254	0	0	0
354	1	1	-21.432407554889366	25.76264846549946	119.64266577607631	0	0	0
355	1	1	-21.836792603094825	25.89931132633266	120.54698651301469	0	0	0
356	1	1	-22.241177651300283	26.750807488106954	120.88079337224846	0	0	0
357	1	1	-22.645562699505742	26.887470348940155	121.78511410918684	0	0	0
358	1	1	-23.0499477477112	27.738966510714448	122.11892096842061	0	0	0
359	1	1	-23.45433279591666	27.87562937154765	123.02324170535898	0	0	0
360	1	1	-23.85871784412212	28.727125533321942	123.35704856459276	0	0	0
361	1	1	-24.263102892327577	28.863788394155144	124.26136930153113	0	0	0
362	1	1	-24.667487940533036	29.715284555929436	124.59517616076491	0	0	0
363	1	1	-25.071872988738495	29.851947416762638	125.49949689770328	0	0	0
364	1	1	-25.476258036943953	30.70344357853693	125.83330375693706	0	0	0
365	1	1	-25.880643085149412	30.840106439370132	126.73762449387543	0	0	0
366	1	1	-26.28502813335487	31.691602601144425	127.0714313531092	0	0	0
367	1	1	-26.68941318156033	31.828265461977626	127.97575209004758	0	0	0
368	1	1	-27.093798229765788	32.679761623751915	128.30955894928135	0	0	0
369	1	1	-27.498183277971247	32.81642448458512	129.2138796862197	0	0	0
370	1	1	-27.902568326176706	33.66792064635941	129.54768654545347	0	0	0
371	1	1	-28.306953374382164	33.80458350719262	130.45200728239183	0	0	0
372	1	1	-28.711338422587623	34.65607966896691	130.7858141416256	0	0	0
373	1	1	-29.115723470793082	34.792742529800115	131.69013487856395	0	0	0
374	1	1	-29.52010851899854	35.64423869157441	132.0239417377977	0	0	0
375	1	1	-29.924493567204	35.78090155240761	132.92826247473607	0	0	0
376	1	1	-30.328878615409458	36.632397714181906	133.26206933396983	0	0	0
377	1	1	-30.733263663614917	36.76906057501511	134.1663900709082	0	0	0
378	1	1	-31.137648711820376	37.6205567367894	134.50019693014195	0	0	0
379	1	1	-31.542033760025834	37.75721959762261	135.4045176670803	0	0	0
380	1	1	-31.946418808231293	38.6087157593969	135.73832452631407	0	0	0
381	1	1	-32.350803856436755	38.745378620230106	136.64264526325243	0	0	0
382	1	1	-32.75518890464222	39.5968747820044	136.9764521224862	0	0	0
383	1	1	-33.15957395284768	39.733537642837604	137.88077285942455	0	0	0
384	1	1	-33.56395900105314	40.585033804611896	138.2145797186583	0	0	0
385	1	1	-33.968344049258604	40.7216966654451	139.11890045559667	0	0	0
386	1	1	-34.37272909746407	41.573192827219394	139.45270731483043	0	0	0
387	1	1	-34.77711414566953	41.7098556880526	140.3570280517688	0	0	0
388	1	1	-35.18149919387499	42.56135184982689	140.69083491100255	0	0	0
389	1	1	-35.58588424208045	42.6980147106601	141.5951556479409	0	0	0
390	1	1	-35.990269290285916	43.54951087243439	141.92896250717467	0	0	0
391	1	1	-36.39465433849138	43.686173733267594	142.83328324411303	0	0	0
392	1	1	-36.79903938669684	44.53766989504189	143.1670901033468	0	0	0
393	1	1	-37.2034244349023	44.67433275587509	144.07141084028515	0	0	0
394	1	1	-37.607809483107765	45.525828917649385	144.40521769951891	0	0	0
395	1	1	-38.01219453131323	45.66249177848259	145.30953843645727	0	0	0
396	1	1	-38.41657957951869	46.51398794025688	145.64334529569103	0	0	0
397	1	1	-38.82096462772415	46.65065080109009	146.5476660326294	0	0	0
398	1	1	-39.225349675929614	47.50214696286438	146.88147289186315	0	0	0
399	1	1	-39.629734724135076	47.638809823697585	147.7857936288015	0	0	0
400	1	1	-40.03411977234054	48.49030598547188	148.11960048803527	0	0	0
401	1	1	-40.438504820546	48.62696884630508	149.02392122497363	0	0	0

Bonds

1	1	1	2
2	1	2	3
3	1	3	4
4	1	4	5
5	1	5	6
6	1	6	7
7	1	7	8
8	1	8	9
9	1	9	10
10	1	10	11
11	1	11	12
12	1	12	13
13	1	13	14
14	1	14	15
15	1	15	16
16	1	16	17
17	1	17	18
18	1	18	19
19	1	19	20
20	1	20	21
21	1	21	22
22	1	22	23
23	1	23	24
24	1	24	25
25	1	25	26
26	1	26	27
27	1	27	28
28	1	28	29
29	1	29	30
30	1	30	31
31	1	31	32
32	1	32	33
33	1	33	34
34	1	34	35
35	1	35	36
36	1	36	37
37	1	37	38
38	1	38	39
39	1	39	40
40	1	40	41
41	1	41	42
42	1	42	43
43	1	43	44
44	1	44	45
45	1	45	46
46	1	46	47
47	1	47	48
48	1	48	49
49	1	49	50
50	1	50	51
51	1	51	52
52	1	52	53
53	1	53	54
54	1	54	55
55	1	55	56
56	1	56	57
57	1	57	58
58	1	58	59
59	1	59	60
60	1	60	61
61	1	61	62
62	1	62	63
63	1	63	64
64	1	64	65
65	1	65	66
66	1	66	67
67	1	67	68
68	1	68	69
69	1	69	70
70	1	70	71
71	1	71	72
72	1	72	73
73	1	73	74
74	1	74	75
75	1	75	76
76	1	76	77
77	1	77	78
78	1	78	79
79	1	79	80
80	1	80	81
81	1	81	82
82	1	82	83
83	1	83	84
84	1	84	85
85	1	85	86
86	1	86	87
87	1	87	88
88	1	88	89
89	1	89	90
90	1	90	91
91	1	91	92
92	1	92	93
93	1	93	94
94	1	94	95
95	1	95	96
96	1	96	97
97	1	97	98
98	1	98	99
99	1	99	100
100	1	100	101
101	1	101	102
102	1	101	202
103	1	101	302
104	1	102	103
105	1	103	104
106	1	104	105
107	1	105	106
108	1	106	107
109	1	107	108
110	1	108	109
111	1	109	110
112	1	110	111
113	1	111	112
114	1	112	113
115	1	113	114
116	1	114	115
117	1	115	116
118	1	116	117
119	1	117	118
120	1	118	119
121	1	119	120
122	1	120	121
123	1	121	122
124	1	122	123
125	1	123	124
126	1	124	125
127	1	125	126
128	1	126	127
129	1	127	128
130	1	128	129
131	1	129	130
132	1	130	131
133	1	131	132
134	1	132	133
135	1	133	134
136	1	134	135
137	1	135	136
138	1	136	137
139	1	137	138
140	1	138	139
141	1	139	140
142	1	140	141
143	1	141	142
144	1	142	143
145	1	143	144
146	1	144	145
147	1	145	146
148	1	146	147
149	1	147	148
150	1	148	149
151	1	149	150
152	1	150	151
153	1	151	152
154	1	152	153
155	1	153	154
156	1	154	155
157	1	155	156
158	1	156	157
159	1	157	158
160	1	158	159
161	1	159	160
162	1	160	161
163	1	161	162
164	1	162	163
165	1	163	164
166	1	164	165
167	1	165	166
168	1	166	167
169	1	167	168
170	1	168	169
171	1	169	170
172	1	170	171
173	1	171	172
174	1	172	173
175	1	173	174
176	1	174	175
177	1	175	176
178	1	176	177
179	1	177	178
180	1	178	179
181	1	179	180
182	1	180	181
183	1	181	182
184	1	182	183
185	1	183	184
186	1	184	185
187	1	185	186
188	1	186	187
189	1	187	188
190	1	188	189
191	1	189	190
192	1	190	191
193	1	191	192
194	1	192	193
195	1	193	194
196	1	194	195
197	1	195	196
198	1	196	197
199	1	197	198
200	1	198	199
201	1	199	200
202	1	200	201
203	1	202	203
204	1	203	204
205	1	204	205
206	1	205	206
207	1	206	207
208	1	207	208
209	1	208	209
210	1	209	210
211	1	210	211
212	1	211	212
213	1	212	213
214	1	213	214
215	1	214	215
216	1	215	216
217	1	216	217
218	1	217	218
219	1	218	219
220	1	219	220
221	1	220	221
222	1	221	222
223	1	222	223
224	1	223	224
225	1	224	225
226	1	225	226
227	1	226	227
228	1	227	228
229	1	228	229
230	1	229	230
231	1	230	231
232	1	231	232
233	1	232	233
234	1	233	234
235	1	234	235
236	1	235	236
237	1	236	237
238	1	237	238
239	1	238	239
240	1	239	240
241	1	240	241
242	1	241	242
243	1	242	243
244	1	243	244
245	1	244	245
246	1	245	246
247	1	246	247
248	1	247	248
249	1	248	249
250	1	249	250
251	1	250	251
252	1	251	252
253	1	252	253
254	1	253	254
255	1	254	255
256	1	255	256
257	1	256	257
258	1	257	258
259	1	258	259
260	1	259	260
261	1	260	261
262	1	261	262
263	1	262	263
264	1	263	264
265	1	264	265
266	1	265	266
267	1	266	267
268	1	267	268
269	1	268	269
270	1	269	270
271	1	270	271
272	1	271	272
273	1	272	273
274	1	273	274
275	1	274	275
276	1	275	276
277	1	276	277
278	1	277	278
279	1	278	279
280	1	279	280
281	1	280	281
282	1	281	282
283	1	282	283
284	1	283	284
285	1	284	285
286	1	285	286
287	1	286	287
288	1	287	288
289	1	288	289
290	1	289	290
291	1	290	291
292	1	291	292
293	1	292	293
294	1	293	294
295	1	294	295
296	1	295	296
297	1	296	297
298	1	297	298
299	1	298	299
300	1	299	300
301	1	300	301
302	1	302	303
303	1	303	304
304	1	304	305
305	1	305	306