bb251nuc1bl125bn4d30tot500V2

501 atoms
500 bonds
502 angles

1 atom types
1 bond types
1 angle types

-1000 1000 xlo xhi
-1000 1000 ylo yhi
-1000 1000 zlo zhi

Masses

1 1

Atoms

1	1	1	0.0	0.0	0.0	0	0	0
2	1	1	0.0	0.0	1.0	0	0	0
3	1	1	0.0	-0.49999999999999994	1.8660254037844388	0	0	0
4	1	1	0.0	0.0	2.7320508075688776	0	0	0
5	1	1	0.0	-0.49999999999999994	3.5980762113533165	0	0	0
6	1	1	0.0	0.0	4.464101615137755	0	0	0
7	1	1	0.0	-0.49999999999999994	5.330127018922194	0	0	0
8	1	1	0.0	0.0	6.196152422706632	0	0	0
9	1	1	0.0	-0.49999999999999994	7.06217782649107	0	0	0
10	1	1	0.0	0.0	7.928203230275509	0	0	0
11	1	1	0.0	-0.49999999999999994	8.794228634059948	0	0	0
12	1	1	0.0	0.0	9.660254037844387	0	0	0
13	1	1	0.0	-0.49999999999999994	10.526279441628827	0	0	0
14	1	1	0.0	0.0	11.392304845413266	0	0	0
15	1	1	0.0	-0.49999999999999994	12.258330249197705	0	0	0
16	1	1	0.0	0.0	13.124355652982144	0	0	0
17	1	1	0.0	-0.49999999999999994	13.990381056766584	0	0	0
18	1	1	0.0	0.0	14.856406460551023	0	0	0
19	1	1	0.0	-0.49999999999999994	15.722431864335462	0	0	0
20	1	1	0.0	0.0	16.5884572681199	0	0	0
21	1	1	0.0	-0.49999999999999994	17.454482671904337	0	0	0
22	1	1	0.0	0.0	18.320508075688775	0	0	0
23	1	1	0.0	-0.49999999999999994	19.186533479473212	0	0	0
24	1	1	0.0	0.0	20.05255888325765	0	0	0
25	1	1	0.0	-0.49999999999999994	20.918584287042087	0	0	0
26	1	1	0.0	0.0	21.784609690826525	0	0	0
27	1	1	0.0	-0.49999999999999994	22.650635094610962	0	0	0
28	1	1	0.0	0.0	23.5166604983954	0	0	0
29	1	1	0.0	-0.49999999999999994	24.382685902179837	0	0	0
30	1	1	0.0	0.0	25.248711305964274	0	0	0
31	1	1	0.0	-0.49999999999999994	26.114736709748712	0	0	0
32	1	1	0.0	0.0	26.98076211353315	0	0	0
33	1	1	0.0	-0.49999999999999994	27.846787517317587	0	0	0
34	1	1	0.0	0.0	28.712812921102024	0	0	0
35	1	1	0.0	-0.49999999999999994	29.578838324886462	0	0	0
36	1	1	0.0	0.0	30.4448637286709	0	0	0
37	1	1	0.0	-0.49999999999999994	31.310889132455337	0	0	0
38	1	1	0.0	0.0	32.17691453623978	0	0	0
39	1	1	0.0	-0.49999999999999994	33.04293994002422	0	0	0
40	1	1	0.0	0.0	33.90896534380866	0	0	0
41	1	1	0.0	-0.49999999999999994	34.7749907475931	0	0	0
42	1	1	0.0	0.0	35.64101615137754	0	0	0
43	1	1	0.0	-0.49999999999999994	36.50704155516198	0	0	0
44	1	1	0.0	0.0	37.373066958946424	0	0	0
45	1	1	0.0	-0.49999999999999994	38.239092362730865	0	0	0
46	1	1	0.0	0.0	39.105117766515306	0	0	0
47	1	1	0.0	-0.49999999999999994	39.97114317029975	0	0	0
48	1	1	0.0	0.0	40.83716857408419	0	0	0
49	1	1	0.0	-0.49999999999999994	41.70319397786863	0	0	0
50	1	1	0.0	0.0	42.56921938165307	0	0	0
51	1	1	0.0	-0.49999999999999994	43.43524478543751	0	0	0
52	1	1	0.0	0.0	44.30127018922195	0	0	0
53	1	1	0.0	-0.49999999999999994	45.16729559300639	0	0	0
54	1	1	0.0	0.0	46.033320996790835	0	0	0
55	1	1	0.0	-0.49999999999999994	46.899346400575276	0	0	0
56	1	1	0.0	0.0	47.76537180435972	0	0	0
57	1	1	0.0	-0.49999999999999994	48.63139720814416	0	0	0
58	1	1	0.0	0.0	49.4974226119286	0	0	0
59	1	1	0.0	-0.49999999999999994	50.36344801571304	0	0	0
60	1	1	0.0	0.0	51.22947341949748	0	0	0
61	1	1	0.0	-0.49999999999999994	52.09549882328192	0	0	0
62	1	1	0.0	0.0	52.96152422706636	0	0	0
63	1	1	0.0	-0.49999999999999994	53.827549630850804	0	0	0
64	1	1	0.0	0.0	54.693575034635245	0	0	0
65	1	1	0.0	-0.49999999999999994	55.559600438419686	0	0	0
66	1	1	0.0	0.0	56.42562584220413	0	0	0
67	1	1	0.0	-0.49999999999999994	57.29165124598857	0	0	0
68	1	1	0.0	0.0	58.15767664977301	0	0	0
69	1	1	0.0	-0.49999999999999994	59.02370205355745	0	0	0
70	1	1	0.0	0.0	59.88972745734189	0	0	0
71	1	1	0.0	-0.49999999999999994	60.75575286112633	0	0	0
72	1	1	0.0	0.0	61.62177826491077	0	0	0
73	1	1	0.0	-0.49999999999999994	62.487803668695214	0	0	0
74	1	1	0.0	0.0	63.353829072479655	0	0	0
75	1	1	0.0	-0.49999999999999994	64.21985447626409	0	0	0
76	1	1	0.0	0.0	65.08587988004852	0	0	0
77	1	1	0.0	-0.49999999999999994	65.95190528383296	0	0	0
78	1	1	0.0	0.0	66.81793068761739	0	0	0
79	1	1	0.0	-0.49999999999999994	67.68395609140183	0	0	0
80	1	1	0.0	0.0	68.54998149518626	0	0	0
81	1	1	0.0	-0.49999999999999994	69.41600689897069	0	0	0
82	1	1	0.0	0.0	70.28203230275513	0	0	0
83	1	1	0.0	-0.49999999999999994	71.14805770653956	0	0	0
84	1	1	0.0	0.0	72.014083110324	0	0	0
85	1	1	0.0	-0.49999999999999994	72.88010851410843	0	0	0
86	1	1	0.0	0.0	73.74613391789286	0	0	0
87	1	1	0.0	-0.49999999999999994	74.6121593216773	0	0	0
88	1	1	0.0	0.0	75.47818472546173	0	0	0
89	1	1	0.0	-0.49999999999999994	76.34421012924616	0	0	0
90	1	1	0.0	0.0	77.2102355330306	0	0	0
91	1	1	0.0	-0.49999999999999994	78.07626093681503	0	0	0
92	1	1	0.0	0.0	78.94228634059947	0	0	0
93	1	1	0.0	-0.49999999999999994	79.8083117443839	0	0	0
94	1	1	0.0	0.0	80.67433714816833	0	0	0
95	1	1	0.0	-0.49999999999999994	81.54036255195277	0	0	0
96	1	1	0.0	0.0	82.4063879557372	0	0	0
97	1	1	0.0	-0.49999999999999994	83.27241335952164	0	0	0
98	1	1	0.0	0.0	84.13843876330607	0	0	0
99	1	1	0.0	-0.49999999999999994	85.0044641670905	0	0	0
100	1	1	0.0	0.0	85.87048957087494	0	0	0
101	1	1	0.0	-0.49999999999999994	86.73651497465937	0	0	0
102	1	1	0.0	0.0	87.6025403784438	0	0	0
103	1	1	0.0	-0.49999999999999994	88.46856578222824	0	0	0
104	1	1	0.0	0.0	89.33459118601267	0	0	0
105	1	1	0.0	-0.49999999999999994	90.20061658979711	0	0	0
106	1	1	0.0	0.0	91.06664199358154	0	0	0
107	1	1	0.0	-0.49999999999999994	91.93266739736598	0	0	0
108	1	1	0.0	0.0	92.79869280115041	0	0	0
109	1	1	0.0	-0.49999999999999994	93.66471820493484	0	0	0
110	1	1	0.0	0.0	94.53074360871928	0	0	0
111	1	1	0.0	-0.49999999999999994	95.39676901250371	0	0	0
112	1	1	0.0	0.0	96.26279441628814	0	0	0
113	1	1	0.0	-0.49999999999999994	97.12881982007258	0	0	0
114	1	1	0.0	0.0	97.99484522385701	0	0	0
115	1	1	0.0	-0.49999999999999994	98.86087062764145	0	0	0
116	1	1	0.0	0.0	99.72689603142588	0	0	0
117	1	1	0.0	-0.49999999999999994	100.59292143521031	0	0	0
118	1	1	0.0	0.0	101.45894683899475	0	0	0
119	1	1	0.0	-0.49999999999999994	102.32497224277918	0	0	0
120	1	1	0.0	0.0	103.19099764656362	0	0	0
121	1	1	0.0	-0.49999999999999994	104.05702305034805	0	0	0
122	1	1	0.0	0.0	104.92304845413248	0	0	0
123	1	1	0.0	-0.49999999999999994	105.78907385791692	0	0	0
124	1	1	0.0	0.0	106.65509926170135	0	0	0
125	1	1	0.0	-0.49999999999999994	107.52112466548579	0	0	0
126	1	1	0.0	0.0	108.38715006927022	0	0	0
127	1	1	-0.1754370595559691	-0.6351851653320286	109.13932135553185	0	0	0
128	1	1	-0.350874119111939	-1.5613572977474015	109.47312821476562	0	0	0
129	1	1	-0.5263111786679089	-1.7353581439011443	110.44212023933143	0	0	0
130	1	1	-0.7017482382238788	-2.661530276316517	110.7759270985652	0	0	0
131	1	1	-0.8771852977798487	-2.83553112247026	111.74491912313101	0	0	0
132	1	1	-1.0526223573358184	-3.7617032548856333	112.07872598236479	0	0	0
133	1	1	-1.2280594168917882	-3.9357041010393763	113.0477180069306	0	0	0
134	1	1	-1.403496476447758	-4.861876233454749	113.38152486616437	0	0	0
135	1	1	-1.5789335360037278	-5.035877079608492	114.35051689073018	0	0	0
136	1	1	-1.7543705955596975	-5.9620492120238655	114.68432374996395	0	0	0
137	1	1	-1.9298076551156673	-6.1360500581776085	115.65331577452976	0	0	0
138	1	1	-2.1052447146716373	-7.062222190592982	115.98712263376353	0	0	0
139	1	1	-2.2806817742276073	-7.236223036746725	116.95611465832934	0	0	0
140	1	1	-2.4561188337835773	-8.162395169162098	117.28992151756312	0	0	0
141	1	1	-2.6315558933395473	-8.33639601531584	118.25891354212892	0	0	0
142	1	1	-2.8069929528955173	-9.262568147731212	118.5927204013627	0	0	0
143	1	1	-2.9824300124514873	-9.436568993884954	119.5617124259285	0	0	0
144	1	1	-3.1578670720074573	-10.362741126300326	119.89551928516228	0	0	0
145	1	1	-3.3333041315634273	-10.536741972454069	120.86451130972809	0	0	0
146	1	1	-3.5087411911193973	-11.46291410486944	121.19831816896186	0	0	0
147	1	1	-3.6841782506753673	-11.636914951023183	122.16731019352767	0	0	0
148	1	1	-3.8596153102313373	-12.563087083438555	122.50111705276144	0	0	0
149	1	1	-4.035052369787307	-12.737087929592297	123.47010907732725	0	0	0
150	1	1	-4.210489429343276	-13.66326006200767	123.80391593656103	0	0	0
151	1	1	-4.385926488899246	-13.837260908161412	124.77290796112683	0	0	0
152	1	1	-4.5613635484552155	-14.763433040576784	125.10671482036061	0	0	0
153	1	1	-4.736800608011185	-14.937433886730526	126.07570684492642	0	0	0
154	1	1	-4.912237667567155	-15.863606019145898	126.40951370416019	0	0	0
155	1	1	-5.087674727123124	-16.03760686529964	127.378505728726	0	0	0
156	1	1	-5.263111786679094	-16.963778997715014	127.71231258795977	0	0	0
157	1	1	-5.438548846235063	-17.137779843868756	128.68130461252557	0	0	0
158	1	1	-5.613985905791033	-18.06395197628413	129.01511147175933	0	0	0
159	1	1	-5.789422965347002	-18.237952822437872	129.98410349632513	0	0	0
160	1	1	-5.964860024902972	-19.164124954853246	130.3179103555589	0	0	0
161	1	1	-6.1402970844589415	-19.33812580100699	131.2869023801247	0	0	0
162	1	1	-6.315734144014911	-20.264297933422363	131.62070923935846	0	0	0
163	1	1	-6.491171203570881	-20.438298779576105	132.58970126392427	0	0	0
164	1	1	-6.66660826312685	-21.36447091199148	132.92350812315803	0	0	0
165	1	1	-6.84204532268282	-21.53847175814522	133.89250014772384	0	0	0
166	1	1	-7.017482382238789	-22.464643890560595	134.2263070069576	0	0	0
167	1	1	-7.192919441794759	-22.638644736714337	135.1952990315234	0	0	0
168	1	1	-7.368356501350728	-23.56481686912971	135.52910589075717	0	0	0
169	1	1	-7.543793560906698	-23.738817715283453	136.49809791532297	0	0	0
170	1	1	-7.7192306204626675	-24.664989847698827	136.83190477455673	0	0	0
171	1	1	-7.894667680018637	-24.83899069385257	137.80089679912254	0	0	0
172	1	1	-8.070104739574607	-25.765162826267943	138.1347036583563	0	0	0
173	1	1	-8.245541799130576	-25.939163672421685	139.1036956829221	0	0	0
174	1	1	-8.420978858686546	-26.86533580483706	139.43750254215587	0	0	0
175	1	1	-8.596415918242515	-27.0393366509908	140.40649456672168	0	0	0
176	1	1	-8.771852977798485	-27.965508783406175	140.74030142595544	0	0	0
177	1	1	-8.947290037354454	-28.139509629559917	141.70929345052124	0	0	0
178	1	1	-9.122727096910424	-29.06568176197529	142.043100309755	0	0	0
179	1	1	-9.298164156466393	-29.239682608129034	143.0120923343208	0	0	0
180	1	1	-9.473601216022363	-30.165854740544408	143.34589919355457	0	0	0
181	1	1	-9.649038275578333	-30.33985558669815	144.31489121812038	0	0	0
182	1	1	-9.824475335134302	-31.266027719113524	144.64869807735414	0	0	0
183	1	1	-9.999912394690272	-31.440028565267266	145.61769010191995	0	0	0
184	1	1	-10.175349454246241	-32.366200697682636	145.9514969611537	0	0	0
185	1	1	-10.35078651380221	-32.54020154383638	146.92048898571952	0	0	0
186	1	1	-10.52622357335818	-33.466373676251756	147.25429584495328	0	0	0
187	1	1	-10.70166063291415	-33.6403745224055	148.22328786951908	0	0	0
188	1	1	-10.87709769247012	-34.566546654820876	148.55709472875284	0	0	0
189	1	1	-11.052534752026089	-34.74054750097462	149.52608675331865	0	0	0
190	1	1	-11.227971811582059	-35.666719633389995	149.8598936125524	0	0	0
191	1	1	-11.403408871138028	-35.84072047954374	150.82888563711822	0	0	0
192	1	1	-11.578845930693998	-36.766892611959115	151.16269249635198	0	0	0
193	1	1	-11.754282990249967	-36.94089345811286	152.1316845209178	0	0	0
194	1	1	-11.929720049805937	-37.867065590528235	152.46549138015155	0	0	0
195	1	1	-12.105157109361906	-38.04106643668198	153.43448340471735	0	0	0
196	1	1	-12.280594168917876	-38.967238569097354	153.76829026395112	0	0	0
197	1	1	-12.456031228473845	-39.1412394152511	154.73728228851692	0	0	0
198	1	1	-12.631468288029815	-40.067411547666474	155.07108914775068	0	0	0
199	1	1	-12.806905347585785	-40.24141239382022	156.0400811723165	0	0	0
200	1	1	-12.982342407141754	-41.16758452623559	156.37388803155025	0	0	0
201	1	1	-13.157779466697724	-41.34158537238934	157.34288005611606	0	0	0
202	1	1	-13.333216526253693	-42.26775750480471	157.67668691534982	0	0	0
203	1	1	-13.508653585809663	-42.44175835095846	158.64567893991563	0	0	0
204	1	1	-13.684090645365632	-43.36793048337383	158.9794857991494	0	0	0
205	1	1	-13.859527704921602	-43.54193132952758	159.9484778237152	0	0	0
206	1	1	-14.034964764477571	-44.46810346194295	160.28228468294895	0	0	0
207	1	1	-14.210401824033541	-44.6421043080967	161.25127670751476	0	0	0
208	1	1	-14.38583888358951	-45.56827644051207	161.58508356674852	0	0	0
209	1	1	-14.56127594314548	-45.74227728666582	162.55407559131433	0	0	0
210	1	1	-14.73671300270145	-46.66844941908119	162.8878824505481	0	0	0
211	1	1	-14.91215006225742	-46.84245026523494	163.8568744751139	0	0	0
212	1	1	-15.087587121813389	-47.76862239765031	164.19068133434766	0	0	0
213	1	1	-15.263024181369358	-47.94262324380406	165.15967335891347	0	0	0
214	1	1	-15.438461240925328	-48.86879537621943	165.49348021814723	0	0	0
215	1	1	-15.613898300481297	-49.04279622237318	166.46247224271303	0	0	0
216	1	1	-15.789335360037267	-49.96896835478855	166.7962791019468	0	0	0
217	1	1	-15.964772419593237	-50.1429692009423	167.7652711265126	0	0	0
218	1	1	-16.140209479149206	-51.06914133335767	168.09907798574636	0	0	0
219	1	1	-16.315646538705177	-51.243142179511416	169.06807001031217	0	0	0
220	1	1	-16.49108359826115	-52.16931431192679	169.40187686954593	0	0	0
221	1	1	-16.66652065781712	-52.343315158080536	170.37086889411174	0	0	0
222	1	1	-16.84195771737309	-53.26948729049591	170.7046757533455	0	0	0
223	1	1	-17.017394776929063	-53.443488136649655	171.6736677779113	0	0	0
224	1	1	-17.192831836485034	-54.36966026906503	172.00747463714507	0	0	0
225	1	1	-17.368268896041005	-54.543661115218775	172.97646666171087	0	0	0
226	1	1	-17.543705955596977	-55.46983324763415	173.31027352094463	0	0	0
227	1	1	-17.719143015152948	-55.643834093787895	174.27926554551044	0	0	0
228	1	1	-17.89458007470892	-56.57000622620327	174.6130724047442	0	0	0
229	1	1	-18.07001713426489	-56.744007072357014	175.58206442931	0	0	0
230	1	1	-18.245454193820862	-57.67017920477239	175.91587128854377	0	0	0
231	1	1	-18.420891253376833	-57.844180050926134	176.88486331310958	0	0	0
232	1	1	-18.596328312932805	-58.77035218334151	177.21867017234334	0	0	0
233	1	1	-18.771765372488776	-58.944353029495254	178.18766219690914	0	0	0
234	1	1	-18.947202432044747	-59.87052516191063	178.5214690561429	0	0	0
235	1	1	-19.12263949160072	-60.04452600806437	179.4904610807087	0	0	0
236	1	1	-19.29807655115669	-60.97069814047975	179.82426793994247	0	0	0
237	1	1	-19.47351361071266	-61.14469898663349	180.79325996450828	0	0	0
238	1	1	-19.648950670268633	-62.07087111904887	181.12706682374204	0	0	0
239	1	1	-19.824387729824604	-62.24487196520261	182.09605884830785	0	0	0
240	1	1	-19.999824789380575	-63.17104409761799	182.4298657075416	0	0	0
241	1	1	-20.175261848936547	-63.34504494377173	183.39885773210742	0	0	0
242	1	1	-20.350698908492518	-64.2712170761871	183.73266459134118	0	0	0
243	1	1	-20.52613596804849	-64.44521792234085	184.70165661590698	0	0	0
244	1	1	-20.70157302760446	-65.37139005475622	185.03546347514074	0	0	0
245	1	1	-20.877010087160432	-65.54539090090996	186.00445549970655	0	0	0
246	1	1	-21.052447146716403	-66.47156303332534	186.3382623589403	0	0	0
247	1	1	-21.227884206272375	-66.64556387947908	187.30725438350612	0	0	0
248	1	1	-21.403321265828346	-67.57173601189446	187.64106124273988	0	0	0
249	1	1	-21.578758325384317	-67.7457368580482	188.6100532673057	0	0	0
250	1	1	-21.75419538494029	-68.67190899046358	188.94386012653945	0	0	0
251	1	1	-21.92963244449626	-68.84590983661732	189.91285215110526	0	0	0
252	1	1	-0.7143700651709364	0.6995255217583137	108.36872578104996	0	0	0
253	1	1	-1.4287401303418756	1.3145445383067083	108.70253264028374	0	0	0
254	1	1	-2.143110195512815	1.9111392666348461	108.33681397775919	0	0	0
255	1	1	-2.8574802606837544	2.5261582831832405	108.67062083699297	0	0	0
256	1	1	-3.571850325854694	3.1227530115113784	108.30490217446842	0	0	0
257	1	1	-4.286220391025633	3.737772028059773	108.6387090337022	0	0	0
258	1	1	-5.000590456196573	4.334366756387911	108.27299037117766	0	0	0
259	1	1	-5.714960521367512	4.9493857729363055	108.60679723041143	0	0	0
260	1	1	-6.429330586538452	5.545980501264443	108.24107856788689	0	0	0
261	1	1	-7.143700651709391	6.160999517812838	108.57488542712066	0	0	0
262	1	1	-7.858070716880331	6.757594246140976	108.20916676459612	0	0	0
263	1	1	-8.57244078205127	7.372613262689371	108.5429736238299	0	0	0
264	1	1	-9.28681084722221	7.969207991017509	108.17725496130535	0	0	0
265	1	1	-10.00118091239315	8.584227007565904	108.51106182053913	0	0	0
266	1	1	-10.715550977564089	9.180821735894042	108.14534315801458	0	0	0
267	1	1	-11.429921042735028	9.795840752442437	108.47915001724836	0	0	0
268	1	1	-12.144291107905968	10.392435480770576	108.11343135472382	0	0	0
269	1	1	-12.858661173076907	11.007454497318971	108.44723821395759	0	0	0
270	1	1	-13.573031238247847	11.60404922564711	108.08151955143305	0	0	0
271	1	1	-14.287401303418786	12.219068242195505	108.41532641066682	0	0	0
272	1	1	-15.001771368589726	12.815662970523643	108.04960774814228	0	0	0
273	1	1	-15.716141433760665	13.430681987072038	108.38341460737605	0	0	0
274	1	1	-16.430511498931605	14.027276715400177	108.01769594485151	0	0	0
275	1	1	-17.144881564102544	14.642295731948572	108.35150280408529	0	0	0
276	1	1	-17.859251629273484	15.23889046027671	107.98578414156074	0	0	0
277	1	1	-18.573621694444423	15.853909476825105	108.31959100079452	0	0	0
278	1	1	-19.287991759615362	16.450504205153244	107.95387233826997	0	0	0
279	1	1	-20.002361824786302	17.06552322170164	108.28767919750375	0	0	0
280	1	1	-20.71673188995724	17.662117950029778	107.9219605349792	0	0	0
281	1	1	-21.43110195512818	18.277136966578173	108.25576739421298	0	0	0
282	1	1	-22.14547202029912	18.87373169490631	107.89004873168844	0	0	0
283	1	1	-22.85984208547006	19.488750711454706	108.22385559092221	0	0	0
284	1	1	-23.574212150641	20.085345439782845	107.85813692839767	0	0	0
285	1	1	-24.28858221581194	20.70036445633124	108.19194378763144	0	0	0
286	1	1	-25.00295228098288	21.29695918465938	107.8262251251069	0	0	0
287	1	1	-25.717322346153818	21.911978201207774	108.16003198434068	0	0	0
288	1	1	-26.431692411324757	22.508572929535912	107.79431332181613	0	0	0
289	1	1	-27.146062476495697	23.123591946084307	108.12812018104991	0	0	0
290	1	1	-27.860432541666636	23.720186674412446	107.76240151852537	0	0	0
291	1	1	-28.574802606837576	24.33520569096084	108.09620837775914	0	0	0
292	1	1	-29.289172672008515	24.93180041928898	107.7304897152346	0	0	0
293	1	1	-30.003542737179455	25.546819435837374	108.06429657446837	0	0	0
294	1	1	-30.717912802350394	26.143414164165513	107.69857791194383	0	0	0
295	1	1	-31.432282867521334	26.758433180713908	108.0323847711776	0	0	0
296	1	1	-32.14665293269227	27.355027909042047	107.66666610865306	0	0	0
297	1	1	-32.86102299786321	27.97004692559044	108.00047296788684	0	0	0
298	1	1	-33.57539306303415	28.56664165391858	107.63475430536229	0	0	0
299	1	1	-34.28976312820509	29.181660670466975	107.96856116459607	0	0	0
300	1	1	-35.00413319337603	29.778255398795114	107.60284250207152	0	0	0
301	1	1	-35.71850325854697	30.39327441534351	107.9366493613053	0	0	0
302	1	1	-36.43287332371791	30.989869143671648	107.57093069878076	0	0	0
303	1	1	-37.147243388888846	31.604888160220042	107.90473755801453	0	0	0
304	1	1	-37.861613454059786	32.20148288854818	107.53901889548999	0	0	0
305	1	1	-38.575983519230725	32.81650190509657	107.87282575472376	0	0	0
306	1	1	-39.290353584401664	33.41309663342471	107.50710709219922	0	0	0
307	1	1	-40.004723649572604	34.0281156499731	107.840913951433	0	0	0
308	1	1	-40.71909371474354	34.62471037830124	107.47519528890845	0	0	0
309	1	1	-41.43346377991448	35.23972939484963	107.80900214814223	0	0	0
310	1	1	-42.14783384508542	35.83632412317777	107.44328348561768	0	0	0
311	1	1	-42.86220391025636	36.45134313972616	107.77709034485146	0	0	0
312	1	1	-43.5765739754273	37.0479378680543	107.41137168232692	0	0	0
313	1	1	-44.29094404059824	37.66295688460269	107.74517854156069	0	0	0
314	1	1	-45.00531410576918	38.25955161293083	107.37945987903615	0	0	0
315	1	1	-45.71968417094012	38.87457062947922	107.71326673826992	0	0	0
316	1	1	-46.43405423611106	39.47116535780736	107.34754807574538	0	0	0
317	1	1	-47.148424301282	40.08618437435575	107.68135493497915	0	0	0
318	1	1	-47.86279436645294	40.68277910268389	107.31563627245461	0	0	0
319	1	1	-48.57716443162388	41.29779811923228	107.64944313168839	0	0	0
320	1	1	-49.29153449679482	41.89439284756042	107.28372446916384	0	0	0
321	1	1	-50.00590456196576	42.50941186410881	107.61753132839762	0	0	0
322	1	1	-50.720274627136696	43.10600659243695	107.25181266587308	0	0	0
323	1	1	-51.434644692307636	43.72102560898534	107.58561952510685	0	0	0
324	1	1	-52.149014757478575	44.31762033731348	107.2199008625823	0	0	0
325	1	1	-52.863384822649515	44.93263935386187	107.55370772181608	0	0	0
326	1	1	-53.577754887820454	45.52923408219001	107.18798905929154	0	0	0
327	1	1	-54.292124952991394	46.1442530987384	107.52179591852531	0	0	0
328	1	1	-55.00649501816233	46.74084782706654	107.15607725600077	0	0	0
329	1	1	-55.72086508333327	47.35586684361493	107.48988411523455	0	0	0
330	1	1	-56.43523514850421	47.95246157194307	107.12416545271	0	0	0
331	1	1	-57.14960521367515	48.56748058849146	107.45797231194378	0	0	0
332	1	1	-57.86397527884609	49.1640753168196	107.09225364941923	0	0	0
333	1	1	-58.57834534401703	49.77909433336799	107.42606050865301	0	0	0
334	1	1	-59.29271540918797	50.37568906169613	107.06034184612847	0	0	0
335	1	1	-60.00708547435891	50.99070807824452	107.39414870536224	0	0	0
336	1	1	-60.72145553952985	51.58730280657266	107.0284300428377	0	0	0
337	1	1	-61.43582560470079	52.20232182312105	107.36223690207147	0	0	0
338	1	1	-62.15019566987173	52.79891655144919	106.99651823954693	0	0	0
339	1	1	-62.86456573504267	53.413935567997584	107.3303250987807	0	0	0
340	1	1	-63.57893580021361	54.01053029632572	106.96460643625616	0	0	0
341	1	1	-64.29330586538454	54.625549312874114	107.29841329548994	0	0	0
342	1	1	-65.00767593055548	55.22214404120225	106.9326946329654	0	0	0
343	1	1	-65.72204599572642	55.837163057750644	107.26650149219917	0	0	0
344	1	1	-66.43641606089736	56.43375778607878	106.90078282967463	0	0	0
345	1	1	-67.1507861260683	57.048776802627174	107.2345896889084	0	0	0
346	1	1	-67.86515619123924	57.64537153095531	106.86887102638386	0	0	0
347	1	1	-68.57952625641018	58.260390547503704	107.20267788561763	0	0	0
348	1	1	-69.29389632158112	58.85698527583184	106.83695922309309	0	0	0
349	1	1	-70.00826638675206	59.472004292380234	107.17076608232686	0	0	0
350	1	1	-70.722636451923	60.06859902070837	106.80504741980232	0	0	0
351	1	1	-71.43700651709393	60.683618037256764	107.1388542790361	0	0	0
352	1	1	-72.15137658226487	61.2802127655849	106.77313561651155	0	0	0
353	1	1	-72.86574664743581	61.895231782133294	107.10694247574533	0	0	0
354	1	1	-73.58011671260675	62.49182651046143	106.74122381322078	0	0	0
355	1	1	-74.29448677777769	63.106845527009824	107.07503067245456	0	0	0
356	1	1	-75.00885684294863	63.70344025533796	106.70931200993002	0	0	0
357	1	1	-75.72322690811957	64.31845927188635	107.04311886916379	0	0	0
358	1	1	-76.43759697329051	64.9150540002145	106.67740020663925	0	0	0
359	1	1	-77.15196703846145	65.53007301676288	107.01120706587302	0	0	0
360	1	1	-77.86633710363239	66.12666774509103	106.64548840334848	0	0	0
361	1	1	-78.58070716880333	66.74168676163941	106.97929526258226	0	0	0
362	1	1	-79.29507723397427	67.33828148996756	106.61357660005771	0	0	0
363	1	1	-80.00944729914521	67.95330050651594	106.94738345929149	0	0	0
364	1	1	-80.72381736431615	68.54989523484409	106.58166479676694	0	0	0
365	1	1	-81.43818742948709	69.16491425139247	106.91547165600072	0	0	0
366	1	1	-82.15255749465803	69.76150897972062	106.54975299347618	0	0	0
367	1	1	-82.86692755982897	70.376527996269	106.88355985270995	0	0	0
368	1	1	-83.5812976249999	70.97312272459715	106.51784119018541	0	0	0
369	1	1	-84.29566769017084	71.58814174114553	106.85164804941918	0	0	0
370	1	1	-85.01003775534178	72.18473646947368	106.48592938689464	0	0	0
371	1	1	-85.72440782051272	72.79975548602206	106.81973624612841	0	0	0
372	1	1	-86.43877788568366	73.3963502143502	106.45401758360387	0	0	0
373	1	1	-87.1531479508546	74.0113692308986	106.78782444283765	0	0	0
374	1	1	-87.86751801602554	74.60796395922674	106.4221057803131	0	0	0
375	1	1	-88.58188808119648	75.22298297577512	106.75591263954688	0	0	0
376	1	1	-89.29625814636742	75.81957770410327	106.39019397702234	0	0	0
377	1	1	0.8898071247268945	0.43636993242438016	108.52065873139067	0	0	0
378	1	1	1.7796142494537923	0.7475230482913706	108.85446559062444	0	0	0
379	1	1	2.66942137418069	1.192184826278807	108.75190251743383	0	0	0
380	1	1	3.5592284989075877	1.5033379421457975	109.08570937666761	0	0	0
381	1	1	4.449035623634486	1.947999720133234	108.983146303477	0	0	0
382	1	1	5.338842748361383	2.2591528360002244	109.31695316271077	0	0	0
383	1	1	6.228649873088281	2.703814613987661	109.21439008952017	0	0	0
384	1	1	7.118456997815178	3.014967729854652	109.54819694875394	0	0	0
385	1	1	8.008264122542077	3.459629507842088	109.44563387556333	0	0	0
386	1	1	8.898071247268975	3.7707826237090787	109.7794407347971	0	0	0
387	1	1	9.787878371995873	4.215444401696515	109.6768776616065	0	0	0
388	1	1	10.677685496722772	4.526597517563506	110.01068452084027	0	0	0
389	1	1	11.56749262144967	4.971259295550942	109.90812144764966	0	0	0
390	1	1	12.457299746176568	5.2824124114179325	110.24192830688344	0	0	0
391	1	1	13.347106870903467	5.727074189405369	110.13936523369283	0	0	0
392	1	1	14.236913995630365	6.038227305272359	110.4731720929266	0	0	0
393	1	1	15.126721120357264	6.482889083259796	110.370609019736	0	0	0
394	1	1	16.01652824508416	6.794042199126786	110.70441587896977	0	0	0
395	1	1	16.906335369811057	7.2387039771142225	110.60185280577916	0	0	0
396	1	1	17.796142494537953	7.549857092981213	110.93565966501293	0	0	0
397	1	1	18.68594961926485	7.994518870968649	110.83309659182233	0	0	0
398	1	1	19.575756743991747	8.30567198683564	111.1669034510561	0	0	0
399	1	1	20.465563868718643	8.750333764823075	111.06434037786549	0	0	0
400	1	1	21.35537099344554	9.061486880690065	111.39814723709927	0	0	0
401	1	1	22.245178118172436	9.506148658677501	111.29558416390866	0	0	0
402	1	1	23.134985242899333	9.817301774544491	111.62939102314243	0	0	0
403	1	1	24.02479236762623	10.261963552531927	111.52682794995182	0	0	0
404	1	1	24.914599492353126	10.573116668398917	111.8606348091856	0	0	0
405	1	1	25.804406617080023	11.017778446386354	111.75807173599499	0	0	0
406	1	1	26.69421374180692	11.328931562253343	112.09187859522876	0	0	0
407	1	1	27.584020866533816	11.77359334024078	111.98931552203815	0	0	0
408	1	1	28.473827991260713	12.08474645610777	112.32312238127193	0	0	0
409	1	1	29.36363511598761	12.529408234095206	112.22055930808132	0	0	0
410	1	1	30.253442240714506	12.840561349962195	112.5543661673151	0	0	0
411	1	1	31.143249365441402	13.285223127949632	112.45180309412449	0	0	0
412	1	1	32.0330564901683	13.596376243816621	112.78560995335826	0	0	0
413	1	1	32.9228636148952	14.041038021804058	112.68304688016765	0	0	0
414	1	1	33.8126707396221	14.352191137671047	113.01685373940143	0	0	0
415	1	1	34.702477864349	14.796852915658484	112.91429066621082	0	0	0
416	1	1	35.5922849890759	15.108006031525473	113.24809752544459	0	0	0
417	1	1	36.4820921138028	15.55266780951291	113.14553445225398	0	0	0
418	1	1	37.3718992385297	15.8638209253799	113.47934131148776	0	0	0
419	1	1	38.2617063632566	16.308482703367336	113.37677823829715	0	0	0
420	1	1	39.1515134879835	16.619635819234325	113.71058509753092	0	0	0
421	1	1	40.0413206127104	17.064297597221763	113.60802202434031	0	0	0
422	1	1	40.9311277374373	17.375450713088753	113.94182888357409	0	0	0
423	1	1	41.8209348621642	17.82011249107619	113.83926581038348	0	0	0
424	1	1	42.7107419868911	18.13126560694318	114.17307266961726	0	0	0
425	1	1	43.600549111618	18.57592738493062	114.07050959642665	0	0	0
426	1	1	44.4903562363449	18.88708050079761	114.40431645566042	0	0	0
427	1	1	45.3801633610718	19.331742278785047	114.30175338246981	0	0	0
428	1	1	46.2699704857987	19.642895394652037	114.63556024170359	0	0	0
429	1	1	47.1597776105256	20.087557172639475	114.53299716851298	0	0	0
430	1	1	48.0495847352525	20.398710288506464	114.86680402774675	0	0	0
431	1	1	48.9393918599794	20.843372066493902	114.76424095455614	0	0	0
432	1	1	49.8291989847063	21.154525182360892	115.09804781378992	0	0	0
433	1	1	50.7190061094332	21.59918696034833	114.99548474059931	0	0	0
434	1	1	51.6088132341601	21.91034007621532	115.32929159983308	0	0	0
435	1	1	52.498620358887	22.355001854202758	115.22672852664248	0	0	0
436	1	1	53.3884274836139	22.666154970069748	115.56053538587625	0	0	0
437	1	1	54.2782346083408	23.110816748057186	115.45797231268564	0	0	0
438	1	1	55.1680417330677	23.421969863924176	115.79177917191942	0	0	0
439	1	1	56.0578488577946	23.866631641911614	115.6892160987288	0	0	0
440	1	1	56.9476559825215	24.177784757778603	116.02302295796258	0	0	0
441	1	1	57.837463107248404	24.62244653576604	115.92045988477197	0	0	0
442	1	1	58.727270231975304	24.93359965163303	116.25426674400575	0	0	0
443	1	1	59.617077356702204	25.37826142962047	116.15170367081514	0	0	0
444	1	1	60.506884481429104	25.68941454548746	116.48551053004891	0	0	0
445	1	1	61.396691606156004	26.134076323474897	116.3829474568583	0	0	0
446	1	1	62.286498730882904	26.445229439341887	116.71675431609208	0	0	0
447	1	1	63.176305855609804	26.889891217329325	116.61419124290147	0	0	0
448	1	1	64.0661129803367	27.201044333196315	116.94799810213524	0	0	0
449	1	1	64.9559201050636	27.645706111183753	116.84543502894464	0	0	0
450	1	1	65.8457272297905	27.956859227050742	117.17924188817841	0	0	0
451	1	1	66.7355343545174	28.40152100503818	117.0766788149878	0	0	0
452	1	1	67.6253414792443	28.71267412090517	117.41048567422158	0	0	0
453	1	1	68.5151486039712	29.157335898892608	117.30792260103097	0	0	0
454	1	1	69.4049557286981	29.468489014759598	117.64172946026474	0	0	0
455	1	1	70.294762853425	29.913150792747036	117.53916638707413	0	0	0
456	1	1	71.1845699781519	30.224303908614026	117.87297324630791	0	0	0
457	1	1	72.0743771028788	30.668965686601464	117.7704101731173	0	0	0
458	1	1	72.9641842276057	30.980118802468454	118.10421703235107	0	0	0
459	1	1	73.8539913523326	31.42478058045589	118.00165395916046	0	0	0
460	1	1	74.7437984770595	31.73593369632288	118.33546081839424	0	0	0
461	1	1	75.6336056017864	32.180595474310316	118.23289774520363	0	0	0
462	1	1	76.5234127265133	32.49174859017731	118.5667046044374	0	0	0
463	1	1	77.4132198512402	32.93641036816474	118.4641415312468	0	0	0
464	1	1	78.3030269759671	33.24756348403174	118.79794839048057	0	0	0