bb351nuc1bl175bn4d30tot700V2

701 atoms
700 bonds
702 angles

1 atom types
1 bond types
1 angle types

-1000 1000 xlo xhi
-1000 1000 ylo yhi
-1000 1000 zlo zhi

Masses

1 1

Atoms

1	1	1	0.0	0.0	0.0	0	0	0
2	1	1	0.0	0.0	1.0	0	0	0
3	1	1	0.0	-0.49999999999999994	1.8660254037844388	0	0	0
4	1	1	0.0	0.0	2.7320508075688776	0	0	0
5	1	1	0.0	-0.49999999999999994	3.5980762113533165	0	0	0
6	1	1	0.0	0.0	4.464101615137755	0	0	0
7	1	1	0.0	-0.49999999999999994	5.330127018922194	0	0	0
8	1	1	0.0	0.0	6.196152422706632	0	0	0
9	1	1	0.0	-0.49999999999999994	7.06217782649107	0	0	0
10	1	1	0.0	0.0	7.928203230275509	0	0	0
11	1	1	0.0	-0.49999999999999994	8.794228634059948	0	0	0
12	1	1	0.0	0.0	9.660254037844387	0	0	0
13	1	1	0.0	-0.49999999999999994	10.526279441628827	0	0	0
14	1	1	0.0	0.0	11.392304845413266	0	0	0
15	1	1	0.0	-0.49999999999999994	12.258330249197705	0	0	0
16	1	1	0.0	0.0	13.124355652982144	0	0	0
17	1	1	0.0	-0.49999999999999994	13.990381056766584	0	0	0
18	1	1	0.0	0.0	14.856406460551023	0	0	0
19	1	1	0.0	-0.49999999999999994	15.722431864335462	0	0	0
20	1	1	0.0	0.0	16.5884572681199	0	0	0
21	1	1	0.0	-0.49999999999999994	17.454482671904337	0	0	0
22	1	1	0.0	0.0	18.320508075688775	0	0	0
23	1	1	0.0	-0.49999999999999994	19.186533479473212	0	0	0
24	1	1	0.0	0.0	20.05255888325765	0	0	0
25	1	1	0.0	-0.49999999999999994	20.918584287042087	0	0	0
26	1	1	0.0	0.0	21.784609690826525	0	0	0
27	1	1	0.0	-0.49999999999999994	22.650635094610962	0	0	0
28	1	1	0.0	0.0	23.5166604983954	0	0	0
29	1	1	0.0	-0.49999999999999994	24.382685902179837	0	0	0
30	1	1	0.0	0.0	25.248711305964274	0	0	0
31	1	1	0.0	-0.49999999999999994	26.114736709748712	0	0	0
32	1	1	0.0	0.0	26.98076211353315	0	0	0
33	1	1	0.0	-0.49999999999999994	27.846787517317587	0	0	0
34	1	1	0.0	0.0	28.712812921102024	0	0	0
35	1	1	0.0	-0.49999999999999994	29.578838324886462	0	0	0
36	1	1	0.0	0.0	30.4448637286709	0	0	0
37	1	1	0.0	-0.49999999999999994	31.310889132455337	0	0	0
38	1	1	0.0	0.0	32.17691453623978	0	0	0
39	1	1	0.0	-0.49999999999999994	33.04293994002422	0	0	0
40	1	1	0.0	0.0	33.90896534380866	0	0	0
41	1	1	0.0	-0.49999999999999994	34.7749907475931	0	0	0
42	1	1	0.0	0.0	35.64101615137754	0	0	0
43	1	1	0.0	-0.49999999999999994	36.50704155516198	0	0	0
44	1	1	0.0	0.0	37.373066958946424	0	0	0
45	1	1	0.0	-0.49999999999999994	38.239092362730865	0	0	0
46	1	1	0.0	0.0	39.105117766515306	0	0	0
47	1	1	0.0	-0.49999999999999994	39.97114317029975	0	0	0
48	1	1	0.0	0.0	40.83716857408419	0	0	0
49	1	1	0.0	-0.49999999999999994	41.70319397786863	0	0	0
50	1	1	0.0	0.0	42.56921938165307	0	0	0
51	1	1	0.0	-0.49999999999999994	43.43524478543751	0	0	0
52	1	1	0.0	0.0	44.30127018922195	0	0	0
53	1	1	0.0	-0.49999999999999994	45.16729559300639	0	0	0
54	1	1	0.0	0.0	46.033320996790835	0	0	0
55	1	1	0.0	-0.49999999999999994	46.899346400575276	0	0	0
56	1	1	0.0	0.0	47.76537180435972	0	0	0
57	1	1	0.0	-0.49999999999999994	48.63139720814416	0	0	0
58	1	1	0.0	0.0	49.4974226119286	0	0	0
59	1	1	0.0	-0.49999999999999994	50.36344801571304	0	0	0
60	1	1	0.0	0.0	51.22947341949748	0	0	0
61	1	1	0.0	-0.49999999999999994	52.09549882328192	0	0	0
62	1	1	0.0	0.0	52.96152422706636	0	0	0
63	1	1	0.0	-0.49999999999999994	53.827549630850804	0	0	0
64	1	1	0.0	0.0	54.693575034635245	0	0	0
65	1	1	0.0	-0.49999999999999994	55.559600438419686	0	0	0
66	1	1	0.0	0.0	56.42562584220413	0	0	0
67	1	1	0.0	-0.49999999999999994	57.29165124598857	0	0	0
68	1	1	0.0	0.0	58.15767664977301	0	0	0
69	1	1	0.0	-0.49999999999999994	59.02370205355745	0	0	0
70	1	1	0.0	0.0	59.88972745734189	0	0	0
71	1	1	0.0	-0.49999999999999994	60.75575286112633	0	0	0
72	1	1	0.0	0.0	61.62177826491077	0	0	0
73	1	1	0.0	-0.49999999999999994	62.487803668695214	0	0	0
74	1	1	0.0	0.0	63.353829072479655	0	0	0
75	1	1	0.0	-0.49999999999999994	64.21985447626409	0	0	0
76	1	1	0.0	0.0	65.08587988004852	0	0	0
77	1	1	0.0	-0.49999999999999994	65.95190528383296	0	0	0
78	1	1	0.0	0.0	66.81793068761739	0	0	0
79	1	1	0.0	-0.49999999999999994	67.68395609140183	0	0	0
80	1	1	0.0	0.0	68.54998149518626	0	0	0
81	1	1	0.0	-0.49999999999999994	69.41600689897069	0	0	0
82	1	1	0.0	0.0	70.28203230275513	0	0	0
83	1	1	0.0	-0.49999999999999994	71.14805770653956	0	0	0
84	1	1	0.0	0.0	72.014083110324	0	0	0
85	1	1	0.0	-0.49999999999999994	72.88010851410843	0	0	0
86	1	1	0.0	0.0	73.74613391789286	0	0	0
87	1	1	0.0	-0.49999999999999994	74.6121593216773	0	0	0
88	1	1	0.0	0.0	75.47818472546173	0	0	0
89	1	1	0.0	-0.49999999999999994	76.34421012924616	0	0	0
90	1	1	0.0	0.0	77.2102355330306	0	0	0
91	1	1	0.0	-0.49999999999999994	78.07626093681503	0	0	0
92	1	1	0.0	0.0	78.94228634059947	0	0	0
93	1	1	0.0	-0.49999999999999994	79.8083117443839	0	0	0
94	1	1	0.0	0.0	80.67433714816833	0	0	0
95	1	1	0.0	-0.49999999999999994	81.54036255195277	0	0	0
96	1	1	0.0	0.0	82.4063879557372	0	0	0
97	1	1	0.0	-0.49999999999999994	83.27241335952164	0	0	0
98	1	1	0.0	0.0	84.13843876330607	0	0	0
99	1	1	0.0	-0.49999999999999994	85.0044641670905	0	0	0
100	1	1	0.0	0.0	85.87048957087494	0	0	0
101	1	1	0.0	-0.49999999999999994	86.73651497465937	0	0	0
102	1	1	0.0	0.0	87.6025403784438	0	0	0
103	1	1	0.0	-0.49999999999999994	88.46856578222824	0	0	0
104	1	1	0.0	0.0	89.33459118601267	0	0	0
105	1	1	0.0	-0.49999999999999994	90.20061658979711	0	0	0
106	1	1	0.0	0.0	91.06664199358154	0	0	0
107	1	1	0.0	-0.49999999999999994	91.93266739736598	0	0	0
108	1	1	0.0	0.0	92.79869280115041	0	0	0
109	1	1	0.0	-0.49999999999999994	93.66471820493484	0	0	0
110	1	1	0.0	0.0	94.53074360871928	0	0	0
111	1	1	0.0	-0.49999999999999994	95.39676901250371	0	0	0
112	1	1	0.0	0.0	96.26279441628814	0	0	0
113	1	1	0.0	-0.49999999999999994	97.12881982007258	0	0	0
114	1	1	0.0	0.0	97.99484522385701	0	0	0
115	1	1	0.0	-0.49999999999999994	98.86087062764145	0	0	0
116	1	1	0.0	0.0	99.72689603142588	0	0	0
117	1	1	0.0	-0.49999999999999994	100.59292143521031	0	0	0
118	1	1	0.0	0.0	101.45894683899475	0	0	0
119	1	1	0.0	-0.49999999999999994	102.32497224277918	0	0	0
120	1	1	0.0	0.0	103.19099764656362	0	0	0
121	1	1	0.0	-0.49999999999999994	104.05702305034805	0	0	0
122	1	1	0.0	0.0	104.92304845413248	0	0	0
123	1	1	0.0	-0.49999999999999994	105.78907385791692	0	0	0
124	1	1	0.0	0.0	106.65509926170135	0	0	0
125	1	1	0.0	-0.49999999999999994	107.52112466548579	0	0	0
126	1	1	0.0	0.0	108.38715006927022	0	0	0
127	1	1	0.0	-0.49999999999999994	109.25317547305465	0	0	0
128	1	1	0.0	0.0	110.11920087683909	0	0	0
129	1	1	0.0	-0.49999999999999994	110.98522628062352	0	0	0
130	1	1	0.0	0.0	111.85125168440796	0	0	0
131	1	1	0.0	-0.49999999999999994	112.71727708819239	0	0	0
132	1	1	0.0	0.0	113.58330249197682	0	0	0
133	1	1	0.0	-0.49999999999999994	114.44932789576126	0	0	0
134	1	1	0.0	0.0	115.31535329954569	0	0	0
135	1	1	0.0	-0.49999999999999994	116.18137870333013	0	0	0
136	1	1	0.0	0.0	117.04740410711456	0	0	0
137	1	1	0.0	-0.49999999999999994	117.913429510899	0	0	0
138	1	1	0.0	0.0	118.77945491468343	0	0	0
139	1	1	0.0	-0.49999999999999994	119.64548031846786	0	0	0
140	1	1	0.0	0.0	120.5115057222523	0	0	0
141	1	1	0.0	-0.49999999999999994	121.37753112603673	0	0	0
142	1	1	0.0	0.0	122.24355652982116	0	0	0
143	1	1	0.0	-0.49999999999999994	123.1095819336056	0	0	0
144	1	1	0.0	0.0	123.97560733739003	0	0	0
145	1	1	0.0	-0.49999999999999994	124.84163274117446	0	0	0
146	1	1	0.0	0.0	125.7076581449589	0	0	0
147	1	1	0.0	-0.49999999999999994	126.57368354874333	0	0	0
148	1	1	0.0	0.0	127.43970895252777	0	0	0
149	1	1	0.0	-0.49999999999999994	128.3057343563122	0	0	0
150	1	1	0.0	0.0	129.17175976009665	0	0	0
151	1	1	0.0	-0.49999999999999994	130.0377851638811	0	0	0
152	1	1	0.0	0.0	130.90381056766554	0	0	0
153	1	1	0.0	-0.49999999999999994	131.76983597145	0	0	0
154	1	1	0.0	0.0	132.63586137523444	0	0	0
155	1	1	0.0	-0.49999999999999994	133.5018867790189	0	0	0
156	1	1	0.0	0.0	134.36791218280334	0	0	0
157	1	1	0.0	-0.49999999999999994	135.23393758658779	0	0	0
158	1	1	0.0	0.0	136.09996299037223	0	0	0
159	1	1	0.0	-0.49999999999999994	136.96598839415668	0	0	0
160	1	1	0.0	0.0	137.83201379794113	0	0	0
161	1	1	0.0	-0.49999999999999994	138.69803920172558	0	0	0
162	1	1	0.0	0.0	139.56406460551003	0	0	0
163	1	1	0.0	-0.49999999999999994	140.43009000929447	0	0	0
164	1	1	0.0	0.0	141.29611541307892	0	0	0
165	1	1	0.0	-0.49999999999999994	142.16214081686337	0	0	0
166	1	1	0.0	0.0	143.02816622064782	0	0	0
167	1	1	0.0	-0.49999999999999994	143.89419162443227	0	0	0
168	1	1	0.0	0.0	144.76021702821672	0	0	0
169	1	1	0.0	-0.49999999999999994	145.62624243200116	0	0	0
170	1	1	0.0	0.0	146.4922678357856	0	0	0
171	1	1	0.0	-0.49999999999999994	147.35829323957006	0	0	0
172	1	1	0.0	0.0	148.2243186433545	0	0	0
173	1	1	0.0	-0.49999999999999994	149.09034404713896	0	0	0
174	1	1	0.0	0.0	149.9563694509234	0	0	0
175	1	1	0.0	-0.49999999999999994	150.82239485470785	0	0	0
176	1	1	0.0	0.0	151.6884202584923	0	0	0
177	1	1	0.7154359144332295	-0.3646446160014701	152.2843948857712	0	0	0
178	1	1	1.430871828866453	-0.9784234304514188	152.61820174500497	0	0	0
179	1	1	2.1463077432996767	-0.9962276176224542	153.3166532202402	0	0	0
180	1	1	2.8617436577329003	-1.610006432072403	153.65046007947396	0	0	0
181	1	1	3.577179572166124	-1.6278106192434385	154.3489115547092	0	0	0
182	1	1	4.292615486599347	-2.2415894336933873	154.68271841394295	0	0	0
183	1	1	5.008051401032571	-2.2593936208644227	155.38116988917818	0	0	0
184	1	1	5.723487315465794	-2.8731724353143715	155.71497674841194	0	0	0
185	1	1	6.438923229899018	-2.890976622485407	156.41342822364717	0	0	0
186	1	1	7.154359144332242	-3.5047554369353557	156.74723508288093	0	0	0
187	1	1	7.869795058765465	-3.5225596241063912	157.44568655811617	0	0	0
188	1	1	8.585230973198689	-4.13633843855634	157.77949341734993	0	0	0
189	1	1	9.300666887631913	-4.154142625727375	158.47794489258516	0	0	0
190	1	1	10.016102802065136	-4.767921440177323	158.81175175181892	0	0	0
191	1	1	10.73153871649836	-4.785725627348358	159.51020322705415	0	0	0
192	1	1	11.446974630931583	-5.399504441798307	159.8440100862879	0	0	0
193	1	1	12.162410545364807	-5.417308628969342	160.54246156152314	0	0	0
194	1	1	12.87784645979803	-6.03108744341929	160.8762684207569	0	0	0
195	1	1	13.593282374231254	-6.048891630590325	161.57471989599213	0	0	0
196	1	1	14.308718288664478	-6.662670445040273	161.9085267552259	0	0	0
197	1	1	15.024154203097702	-6.680474632211308	162.60697823046112	0	0	0
198	1	1	15.739590117530925	-7.294253446661257	162.94078508969488	0	0	0
199	1	1	16.45502603196415	-7.312057633832292	163.63923656493012	0	0	0
200	1	1	17.17046194639737	-7.92583644828224	163.97304342416388	0	0	0
201	1	1	17.885897860830596	-7.943640635453275	164.6714948993991	0	0	0
202	1	1	18.601333775263818	-8.557419449903223	165.00530175863287	0	0	0
203	1	1	19.31676968969704	-8.57522363707426	165.7037532338681	0	0	0
204	1	1	20.03220560413026	-9.189002451524209	166.03756009310186	0	0	0
205	1	1	20.747641518563483	-9.206806638695245	166.7360115683371	0	0	0
206	1	1	21.463077432996705	-9.820585453145194	167.06981842757085	0	0	0
207	1	1	22.178513347429927	-9.83838964031623	167.76826990280608	0	0	0
208	1	1	22.89394926186315	-10.452168454766179	168.10207676203984	0	0	0
209	1	1	23.60938517629637	-10.469972641937215	168.80052823727507	0	0	0
210	1	1	24.324821090729593	-11.083751456387164	169.13433509650883	0	0	0
211	1	1	25.040257005162815	-11.1015556435582	169.83278657174407	0	0	0
212	1	1	25.755692919596036	-11.715334458008149	170.16659343097783	0	0	0
213	1	1	26.47112883402926	-11.733138645179185	170.86504490621306	0	0	0
214	1	1	27.18656474846248	-12.346917459629134	171.19885176544682	0	0	0
215	1	1	27.902000662895702	-12.36472164680017	171.89730324068205	0	0	0
216	1	1	28.617436577328924	-12.97850046125012	172.2311100999158	0	0	0
217	1	1	29.332872491762146	-12.996304648421155	172.92956157515104	0	0	0
218	1	1	30.048308406195368	-13.610083462871104	173.2633684343848	0	0	0
219	1	1	30.76374432062859	-13.62788765004214	173.96181990962003	0	0	0
220	1	1	31.47918023506181	-14.24166646449209	174.2956267688538	0	0	0
221	1	1	32.19461614949503	-14.259470651663126	174.99407824408902	0	0	0
222	1	1	32.910052063928255	-14.873249466113075	175.32788510332279	0	0	0
223	1	1	33.62548797836148	-14.89105365328411	176.02633657855802	0	0	0
224	1	1	34.3409238927947	-15.50483246773406	176.36014343779178	0	0	0
225	1	1	35.05635980722792	-15.522636654905096	177.058594913027	0	0	0
226	1	1	35.77179572166114	-16.136415469355043	177.39240177226077	0	0	0
227	1	1	36.487231636094364	-16.154219656526077	178.090853247496	0	0	0
228	1	1	37.202667550527586	-16.767998470976025	178.42466010672976	0	0	0
229	1	1	37.91810346496081	-16.78580265814706	179.123111581965	0	0	0
230	1	1	38.63353937939403	-17.399581472597006	179.45691844119875	0	0	0
231	1	1	39.34897529382725	-17.41738565976804	180.15536991643398	0	0	0
232	1	1	40.06441120826047	-18.031164474217988	180.48917677566774	0	0	0
233	1	1	40.779847122693695	-18.048968661389022	181.18762825090297	0	0	0
234	1	1	41.49528303712692	-18.66274747583897	181.52143511013674	0	0	0
235	1	1	42.21071895156014	-18.680551663010004	182.21988658537197	0	0	0
236	1	1	42.92615486599336	-19.29433047745995	182.55369344460573	0	0	0
237	1	1	43.64159078042658	-19.312134664630985	183.25214491984096	0	0	0
238	1	1	44.357026694859805	-19.925913479080933	183.58595177907472	0	0	0
239	1	1	45.07246260929303	-19.943717666251967	184.28440325430995	0	0	0
240	1	1	45.78789852372625	-20.557496480701914	184.6182101135437	0	0	0
241	1	1	46.50333443815947	-20.57530066787295	185.31666158877894	0	0	0
242	1	1	47.21877035259269	-21.189079482322896	185.6504684480127	0	0	0
243	1	1	47.934206267025914	-21.20688366949393	186.34891992324793	0	0	0
244	1	1	48.649642181459136	-21.820662483943877	186.6827267824817	0	0	0
245	1	1	49.36507809589236	-21.83846667111491	187.38117825771693	0	0	0
246	1	1	50.08051401032558	-22.45224548556486	187.7149851169507	0	0	0
247	1	1	50.7959499247588	-22.470049672735893	188.41343659218592	0	0	0
248	1	1	51.51138583919202	-23.08382848718584	188.74724345141968	0	0	0
249	1	1	52.226821753625245	-23.101632674356875	189.4456949266549	0	0	0
250	1	1	52.94225766805847	-23.715411488806822	189.77950178588867	0	0	0
251	1	1	53.65769358249169	-23.733215675977856	190.4779532611239	0	0	0
252	1	1	54.37312949692491	-24.346994490427804	190.81176012035766	0	0	0
253	1	1	55.08856541135813	-24.364798677598838	191.5102115955929	0	0	0
254	1	1	55.804001325791354	-24.978577492048785	191.84401845482665	0	0	0
255	1	1	56.519437240224576	-24.99638167921982	192.54246993006188	0	0	0
256	1	1	57.2348731546578	-25.610160493669767	192.87627678929564	0	0	0
257	1	1	57.95030906909102	-25.6279646808408	193.57472826453088	0	0	0
258	1	1	58.66574498352424	-26.24174349529075	193.90853512376464	0	0	0
259	1	1	59.381180897957464	-26.259547682461783	194.60698659899987	0	0	0
260	1	1	60.096616812390685	-26.87332649691173	194.94079345823363	0	0	0
261	1	1	60.81205272682391	-26.891130684082764	195.63924493346886	0	0	0
262	1	1	61.52748864125713	-27.50490949853271	195.97305179270262	0	0	0
263	1	1	62.24292455569035	-27.522713685703746	196.67150326793785	0	0	0
264	1	1	62.95836047012357	-28.136492500153693	197.0053101271716	0	0	0
265	1	1	63.673796384556795	-28.154296687324727	197.70376160240684	0	0	0
266	1	1	64.38923229899002	-28.768075501774675	198.0375684616406	0	0	0
267	1	1	65.10466821342325	-28.78587968894571	198.73601993687583	0	0	0
268	1	1	65.82010412785648	-29.399658503395656	199.0698267961096	0	0	0
269	1	1	66.53554004228971	-29.41746269056669	199.76827827134483	0	0	0
270	1	1	67.25097595672294	-30.031241505016638	200.1020851305786	0	0	0
271	1	1	67.96641187115617	-30.049045692187672	200.80053660581382	0	0	0
272	1	1	68.6818477855894	-30.66282450663762	201.13434346504758	0	0	0
273	1	1	69.39728370002263	-30.680628693808654	201.8327949402828	0	0	0
274	1	1	70.11271961445586	-31.2944075082586	202.16660179951657	0	0	0
275	1	1	70.82815552888908	-31.312211695429635	202.8650532747518	0	0	0
276	1	1	71.54359144332231	-31.925990509879583	203.19886013398556	0	0	0
277	1	1	72.25902735775554	-31.943794697050617	203.8973116092208	0	0	0
278	1	1	72.97446327218877	-32.557573511500564	204.23111846845455	0	0	0
279	1	1	73.689899186622	-32.5753776986716	204.92956994368978	0	0	0
280	1	1	74.40533510105523	-33.18915651312155	205.26337680292355	0	0	0
281	1	1	75.12077101548846	-33.20696070029259	205.96182827815878	0	0	0
282	1	1	75.83620692992169	-33.82073951474254	206.29563513739254	0	0	0
283	1	1	76.55164284435492	-33.83854370191358	206.99408661262777	0	0	0
284	1	1	77.26707875878814	-34.45232251636353	207.32789347186153	0	0	0
285	1	1	77.98251467322137	-34.47012670353457	208.02634494709676	0	0	0
286	1	1	78.6979505876546	-35.08390551798452	208.36015180633052	0	0	0
287	1	1	79.41338650208783	-35.10170970515556	209.05860328156575	0	0	0
288	1	1	80.12882241652106	-35.71548851960551	209.3924101407995	0	0	0
289	1	1	80.84425833095429	-35.733292706776545	210.09086161603474	0	0	0
290	1	1	81.55969424538752	-36.347071521226496	210.4246684752685	0	0	0
291	1	1	82.27513015982075	-36.364875708397534	211.12311995050374	0	0	0
292	1	1	82.99056607425398	-36.978654522847485	211.4569268097375	0	0	0
293	1	1	83.7060019886872	-36.99645871001852	212.15537828497273	0	0	0
294	1	1	84.42143790312043	-37.610237524468474	212.4891851442065	0	0	0
295	1	1	85.13687381755366	-37.62804171163951	213.18763661944172	0	0	0
296	1	1	85.85230973198689	-38.24182052608946	213.52144347867548	0	0	0
297	1	1	86.56774564642012	-38.2596247132605	214.2198949539107	0	0	0
298	1	1	87.28318156085335	-38.87340352771045	214.55370181314447	0	0	0
299	1	1	87.99861747528658	-38.89120771488149	215.2521532883797	0	0	0
300	1	1	88.71405338971981	-39.50498652933144	215.58596014761346	0	0	0
301	1	1	89.42948930415304	-39.52279071650248	216.2844116228487	0	0	0
302	1	1	90.14492521858627	-40.13656953095243	216.61821848208245	0	0	0
303	1	1	90.8603611330195	-40.154373718123466	217.31666995731769	0	0	0
304	1	1	91.57579704745272	-40.76815253257342	217.65047681655145	0	0	0
305	1	1	92.29123296188595	-40.785956719744455	218.34892829178668	0	0	0
306	1	1	93.00666887631918	-41.399735534194406	218.68273515102044	0	0	0
307	1	1	93.72210479075241	-41.41753972136544	219.38118662625567	0	0	0
308	1	1	94.43754070518564	-42.031318535815394	219.71499348548943	0	0	0
309	1	1	95.15297661961887	-42.04912272298643	220.41344496072466	0	0	0
310	1	1	95.8684125340521	-42.66290153743638	220.74725181995842	0	0	0
311	1	1	96.58384844848533	-42.68070572460742	221.44570329519365	0	0	0
312	1	1	97.29928436291856	-43.29448453905737	221.7795101544274	0	0	0
313	1	1	98.01472027735178	-43.31228872622841	222.47796162966264	0	0	0
314	1	1	98.73015619178501	-43.92606754067836	222.8117684888964	0	0	0
315	1	1	99.44559210621824	-43.9438717278494	223.51021996413164	0	0	0
316	1	1	100.16102802065147	-44.55765054229935	223.8440268233654	0	0	0
317	1	1	100.8764639350847	-44.57545472947039	224.54247829860063	0	0	0
318	1	1	101.59189984951793	-45.18923354392034	224.8762851578344	0	0	0
319	1	1	102.30733576395116	-45.207037731091376	225.57473663306962	0	0	0
320	1	1	103.02277167838439	-45.82081654554133	225.90854349230338	0	0	0
321	1	1	103.73820759281762	-45.838620732712364	226.6069949675386	0	0	0
322	1	1	104.45364350725085	-46.452399547162315	226.94080182677237	0	0	0
323	1	1	105.16907942168407	-46.47020373433335	227.6392533020076	0	0	0
324	1	1	105.8845153361173	-47.083982548783304	227.97306016124136	0	0	0
325	1	1	106.59995125055053	-47.10178673595434	228.6715116364766	0	0	0
326	1	1	107.31538716498376	-47.71556555040429	229.00531849571036	0	0	0
327	1	1	108.03082307941699	-47.73336973757533	229.7037699709456	0	0	0
328	1	1	108.74625899385022	-48.34714855202528	230.03757683017935	0	0	0
329	1	1	109.46169490828345	-48.36495273919632	230.73602830541458	0	0	0
330	1	1	110.17713082271668	-48.97873155364627	231.06983516464834	0	0	0
331	1	1	110.8925667371499	-48.99653574081731	231.76828663988357	0	0	0
332	1	1	111.60800265158313	-49.61031455526726	232.10209349911733	0	0	0
333	1	1	112.32343856601636	-49.628118742438296	232.80054497435256	0	0	0
334	1	1	113.03887448044959	-50.24189755688825	233.13435183358632	0	0	0
335	1	1	113.75431039488282	-50.259701744059285	233.83280330882155	0	0	0
336	1	1	114.46974630931605	-50.873480558509236	234.1666101680553	0	0	0
337	1	1	115.18518222374928	-50.891284745680274	234.86506164329055	0	0	0
338	1	1	115.90061813818251	-51.505063560130225	235.1988685025243	0	0	0
339	1	1	116.61605405261574	-51.52286774730126	235.89731997775954	0	0	0
340	1	1	117.33148996704897	-52.13664656175121	236.2311268369933	0	0	0
341	1	1	118.0469258814822	-52.15445074892225	236.92957831222853	0	0	0
342	1	1	118.76236179591542	-52.7682295633722	237.2633851714623	0	0	0
343	1	1	119.47779771034865	-52.78603375054324	237.96183664669752	0	0	0
344	1	1	120.19323362478188	-53.39981256499319	238.29564350593128	0	0	0
345	1	1	120.90866953921511	-53.41761675216423	238.9940949811665	0	0	0
346	1	1	121.62410545364834	-54.03139556661418	239.32790184040027	0	0	0
347	1	1	122.33954136808157	-54.04919975378522	240.0263533156355	0	0	0
348	1	1	123.0549772825148	-54.66297856823517	240.36016017486926	0	0	0
349	1	1	123.77041319694803	-54.680782755406206	241.0586116501045	0	0	0
350	1	1	124.48584911138126	-55.29456156985616	241.39241850933826	0	0	0
351	1	1	125.20128502581449	-55.312365757027194	242.0908699845735	0	0	0
352	1	1	-0.889266002834974	-0.10389948339884737	152.1338536132732	0	0	0
353	1	1	-1.7785320056699407	-0.41659575285278183	152.46766047250696	0	0	0
354	1	1	-2.6677980085049073	-0.2838586675258087	152.9053668151396	0	0	0
355	1	1	-3.557064011339874	-0.5965549369797432	153.23917367437335	0	0	0
356	1	1	-4.4463300141748405	-0.46381785165277	153.67688001700597	0	0	0
357	1	1	-5.335596017009808	-0.7765141211067045	154.01068687623973	0	0	0
358	1	1	-6.224862019844775	-0.6437770357797313	154.44839321887235	0	0	0
359	1	1	-7.114128022679742	-0.9564733052336658	154.78220007810611	0	0	0
360	1	1	-8.003394025514709	-0.8237362199066927	155.21990642073874	0	0	0
361	1	1	-8.892660028349676	-1.1364324893606272	155.5537132799725	0	0	0
362	1	1	-9.781926031184643	-1.003695404033654	155.99141962260512	0	0	0
363	1	1	-10.67119203401961	-1.3163916734875887	156.32522648183888	0	0	0
364	1	1	-11.560458036854577	-1.1836545881606155	156.7629328244715	0	0	0
365	1	1	-12.449724039689544	-1.4963508576145501	157.09673968370527	0	0	0
366	1	1	-13.338990042524511	-1.363613772287577	157.5344460263379	0	0	0
367	1	1	-14.228256045359478	-1.6763100417415115	157.86825288557165	0	0	0
368	1	1	-15.117522048194445	-1.5435729564145384	158.30595922820427	0	0	0
369	1	1	-16.00678805102941	-1.856269225868473	158.63976608743803	0	0	0
370	1	1	-16.896054053864376	-1.7235321405414998	159.07747243007066	0	0	0
371	1	1	-17.78532005669934	-2.0362284099954344	159.41127928930442	0	0	0
372	1	1	-18.674586059534306	-1.9034913246684613	159.84898563193704	0	0	0
373	1	1	-19.56385206236927	-2.216187594122396	160.1827924911708	0	0	0
374	1	1	-20.453118065204237	-2.0834505087954227	160.62049883380342	0	0	0
375	1	1	-21.342384068039202	-2.3961467782493573	160.95430569303718	0	0	0
376	1	1	-22.231650070874167	-2.263409692922384	161.3920120356698	0	0	0
377	1	1	-23.120916073709132	-2.5761059623763187	161.72581889490357	0	0	0
378	1	1	-24.010182076544098	-2.4433688770493456	162.1635252375362	0	0	0
379	1	1	-24.899448079379063	-2.75606514650328	162.49733209676995	0	0	0
380	1	1	-25.788714082214028	-2.623328061176307	162.93503843940258	0	0	0
381	1	1	-26.677980085048993	-2.9360243306302416	163.26884529863634	0	0	0
382	1	1	-27.56724608788396	-2.8032872453032684	163.70655164126896	0	0	0
383	1	1	-28.456512090718924	-3.115983514757203	164.04035850050272	0	0	0
384	1	1	-29.34577809355389	-2.98324642943023	164.47806484313534	0	0	0
385	1	1	-30.235044096388854	-3.2959426988841645	164.8118717023691	0	0	0
386	1	1	-31.12431009922382	-3.1632056135571913	165.24957804500173	0	0	0
387	1	1	-32.013576102058785	-3.475901883011126	165.5833849042355	0	0	0
388	1	1	-32.90284210489375	-3.3431647976841528	166.0210912468681	0	0	0
389	1	1	-33.792108107728716	-3.6558610671380873	166.35489810610187	0	0	0
390	1	1	-34.68137411056368	-3.523123981811114	166.7926044487345	0	0	0
391	1	1	-35.570640113398646	-3.8358202512650488	167.12641130796825	0	0	0
392	1	1	-36.45990611623361	-3.7030831659380756	167.56411765060088	0	0	0
393	1	1	-37.34917211906858	-4.01577943539201	167.89792450983464	0	0	0
394	1	1	-38.23843812190354	-3.8830423500650366	168.33563085246726	0	0	0
395	1	1	-39.12770412473851	-4.195738619518971	168.66943771170102	0	0	0
396	1	1	-40.01697012757347	-4.063001534191997	169.10714405433365	0	0	0
397	1	1	-40.90623613040844	-4.375697803645932	169.4409509135674	0	0	0
398	1	1	-41.7955021332434	-4.242960718318958	169.87865725620003	0	0	0
399	1	1	-42.68476813607837	-4.555656987772893	170.2124641154338	0	0	0
400	1	1	-43.57403413891333	-4.422919902445919	170.6501704580664	0	0	0
401	1	1	-44.4633001417483	-4.735616171899854	170.98397731730017	0	0	0
402	1	1	-45.352566144583264	-4.60287908657288	171.4216836599328	0	0	0
403	1	1	-46.24183214741823	-4.915575356026815	171.75549051916656	0	0	0
404	1	1	-47.131098150253194	-4.782838270699841	172.19319686179918	0	0	0
405	1	1	-48.02036415308816	-5.095534540153776	172.52700372103294	0	0	0
406	1	1	-48.909630155923125	-4.962797454826802	172.96471006366556	0	0	0
407	1	1	-49.79889615875809	-5.275493724280737	173.29851692289932	0	0	0
408	1	1	-50.688162161593056	-5.142756638953763	173.73622326553195	0	0	0
409	1	1	-51.57742816442802	-5.455452908407698	174.0700301247657	0	0	0
410	1	1	-52.466694167262986	-5.322715823080724	174.50773646739833	0	0	0
411	1	1	-53.35596017009795	-5.635412092534659	174.8415433266321	0	0	0
412	1	1	-54.24522617293292	-5.502675007207685	175.27924966926471	0	0	0
413	1	1	-55.13449217576788	-5.81537127666162	175.61305652849848	0	0	0
414	1	1	-56.02375817860285	-5.682634191334646	176.0507628711311	0	0	0
415	1	1	-56.91302418143781	-5.995330460788581	176.38456973036486	0	0	0
416	1	1	-57.80229018427278	-5.862593375461607	176.82227607299748	0	0	0
417	1	1	-58.69155618710774	-6.175289644915542	177.15608293223124	0	0	0
418	1	1	-59.58082218994271	-6.042552559588568	177.59378927486387	0	0	0
419	1	1	-60.47008819277767	-6.355248829042503	177.92759613409763	0	0	0
420	1	1	-61.35935419561264	-6.222511743715529	178.36530247673025	0	0	0
421	1	1	-62.248620198447604	-6.535208013169464	178.699109335964	0	0	0
422	1	1	-63.13788620128257	-6.40247092784249	179.13681567859663	0	0	0
423	1	1	-64.02715220411754	-6.715167197296425	179.4706225378304	0	0	0
424	1	1	-64.91641820695251	-6.582430111969451	179.90832888046302	0	0	0
425	1	1	-65.80568420978749	-6.895126381423386	180.24213573969678	0	0	0
426	1	1	-66.69495021262246	-6.762389296096412	180.6798420823294	0	0	0
427	1	1	-67.58421621545743	-7.075085565550347	181.01364894156316	0	0	0
428	1	1	-68.4734822182924	-6.942348480223373	181.45135528419578	0	0	0
429	1	1	-69.36274822112738	-7.255044749677308	181.78516214342955	0	0	0
430	1	1	-70.25201422396235	-7.122307664350334	182.22286848606217	0	0	0
431	1	1	-71.14128022679732	-7.435003933804269	182.55667534529593	0	0	0
432	1	1	-72.0305462296323	-7.302266848477295	182.99438168792855	0	0	0
433	1	1	-72.91981223246727	-7.61496311793123	183.3281885471623	0	0	0
434	1	1	-73.80907823530224	-7.482226032604256	183.76589488979494	0	0	0
435	1	1	-74.69834423813721	-7.794922302058191	184.0997017490287	0	0	0
436	1	1	-75.58761024097218	-7.662185216731217	184.53740809166132	0	0	0
437	1	1	-76.47687624380715	-7.974881486185152	184.87121495089508	0	0	0
438	1	1	-77.36614224664213	-7.842144400858178	185.3089212935277	0	0	0
439	1	1	-78.2554082494771	-8.154840670312112	185.64272815276146	0	0	0
440	1	1	-79.14467425231207	-8.022103584985139	186.0804344953941	0	0	0
441	1	1	-80.03394025514704	-8.334799854439073	186.41424135462785	0	0	0
442	1	1	-80.92320625798202	-8.2020627691121	186.85194769726047	0	0	0
443	1	1	-81.81247226081699	-8.514759038566034	187.18575455649423	0	0	0
444	1	1	-82.70173826365196	-8.382021953239061	187.62346089912685	0	0	0
445	1	1	-83.59100426648693	-8.694718222692995	187.95726775836062	0	0	0
446	1	1	-84.4802702693219	-8.561981137366022	188.39497410099324	0	0	0
447	1	1	-85.36953627215688	-8.874677406819956	188.728780960227	0	0	0
448	1	1	-86.25880227499185	-8.741940321492983	189.16648730285962	0	0	0
449	1	1	-87.14806827782682	-9.054636590946917	189.50029416209338	0	0	0
450	1	1	-88.0373342806618	-8.921899505619944	189.938000504726	0	0	0
451	1	1	-88.92660028349677	-9.234595775073878	190.27180736395977	0	0	0
452	1	1	-89.81586628633174	-9.101858689746905	190.7095137065924	0	0	0
453	1	1	-90.70513228916671	-9.414554959200839	191.04332056582615	0	0	0
454	1	1	-91.59439829200169	-9.281817873873866	191.48102690845877	0	0	0
455	1	1	-92.48366429483666	-9.5945141433278	191.81483376769253	0	0	0
456	1	1	-93.37293029767163	-9.461777058000827	192.25254011032516	0	0	0
457	1	1	-94.2621963005066	-9.77447332745476	192.58634696955892	0	0	0
458	1	1	-95.15146230334157	-9.641736242127788	193.02405331219154	0	0	0
459	1	1	-96.04072830617655	-9.954432511581722	193.3578601714253	0	0	0
460	1	1	-96.92999430901152	-9.821695426254749	193.79556651405792	0	0	0
461	1	1	-97.81926031184649	-10.134391695708683	194.12937337329168	0	0	0
462	1	1	-98.70852631468146	-10.00165461038171	194.5670797159243	0	0	0
463	1	1	-99.59779231751644	-10.314350879835644	194.90088657515807	0	0	0
464	1	1	-100.48705832035141	-10.18161379450867	195.3385929177907	0	0	0
465	1	1	-101.37632432318638	-10.494310063962605	195.67239977702445	0	0	0
466	1	1	-102.26559032602135	-10.361572978635632	196.11010611965708	0	0	0
467	1	1	-103.15485632885633	-10.674269248089566	196.44391297889084	0	0	0
468	1	1	-104.0441223316913	-10.541532162762593	196.88161932152346	0	0	0
469	1	1	-104.93338833452627	-10.854228432216527	197.21542618075722	0	0	0
470	1	1	-105.82265433736124	-10.721491346889554	197.65313252338984	0	0	0
471	1	1	-106.71192034019622	-11.034187616343488	197.9869393826236	0	0	0
472	1	1	-107.60118634303119	-10.901450531016515	198.42464572525623	0	0	0
473	1	1	-108.49045234586616	-11.214146800470449	198.75845258449	0	0	0
474	1	1	-109.37971834870113	-11.081409715143476	199.1961589271226	0	0	0
475	1	1	-110.2689843515361	-11.39410598459741	199.52996578635637	0	0	0
476	1	1	-111.15825035437108	-11.261368899270437	199.967672128989	0	0	0
477	1	1	-112.04751635720605	-11.57406516872437	200.30147898822275	0	0	0
478	1	1	-112.93678236004102	-11.441328083397398	200.73918533085538	0	0	0