bb501nuc1bl250bn4d30tot1000V2

1001 atoms
1000 bonds
1002 angles

1 atom types
1 bond types
1 angle types

-1000 1000 xlo xhi
-1000 1000 ylo yhi
-1000 1000 zlo zhi

Masses

1 1

Atoms

1	1	1	0.0	0.0	0.0	0	0	0
2	1	1	0.0	0.0	1.0	0	0	0
3	1	1	0.0	-0.49999999999999994	1.8660254037844388	0	0	0
4	1	1	0.0	0.0	2.7320508075688776	0	0	0
5	1	1	0.0	-0.49999999999999994	3.5980762113533165	0	0	0
6	1	1	0.0	0.0	4.464101615137755	0	0	0
7	1	1	0.0	-0.49999999999999994	5.330127018922194	0	0	0
8	1	1	0.0	0.0	6.196152422706632	0	0	0
9	1	1	0.0	-0.49999999999999994	7.06217782649107	0	0	0
10	1	1	0.0	0.0	7.928203230275509	0	0	0
11	1	1	0.0	-0.49999999999999994	8.794228634059948	0	0	0
12	1	1	0.0	0.0	9.660254037844387	0	0	0
13	1	1	0.0	-0.49999999999999994	10.526279441628827	0	0	0
14	1	1	0.0	0.0	11.392304845413266	0	0	0
15	1	1	0.0	-0.49999999999999994	12.258330249197705	0	0	0
16	1	1	0.0	0.0	13.124355652982144	0	0	0
17	1	1	0.0	-0.49999999999999994	13.990381056766584	0	0	0
18	1	1	0.0	0.0	14.856406460551023	0	0	0
19	1	1	0.0	-0.49999999999999994	15.722431864335462	0	0	0
20	1	1	0.0	0.0	16.5884572681199	0	0	0
21	1	1	0.0	-0.49999999999999994	17.454482671904337	0	0	0
22	1	1	0.0	0.0	18.320508075688775	0	0	0
23	1	1	0.0	-0.49999999999999994	19.186533479473212	0	0	0
24	1	1	0.0	0.0	20.05255888325765	0	0	0
25	1	1	0.0	-0.49999999999999994	20.918584287042087	0	0	0
26	1	1	0.0	0.0	21.784609690826525	0	0	0
27	1	1	0.0	-0.49999999999999994	22.650635094610962	0	0	0
28	1	1	0.0	0.0	23.5166604983954	0	0	0
29	1	1	0.0	-0.49999999999999994	24.382685902179837	0	0	0
30	1	1	0.0	0.0	25.248711305964274	0	0	0
31	1	1	0.0	-0.49999999999999994	26.114736709748712	0	0	0
32	1	1	0.0	0.0	26.98076211353315	0	0	0
33	1	1	0.0	-0.49999999999999994	27.846787517317587	0	0	0
34	1	1	0.0	0.0	28.712812921102024	0	0	0
35	1	1	0.0	-0.49999999999999994	29.578838324886462	0	0	0
36	1	1	0.0	0.0	30.4448637286709	0	0	0
37	1	1	0.0	-0.49999999999999994	31.310889132455337	0	0	0
38	1	1	0.0	0.0	32.17691453623978	0	0	0
39	1	1	0.0	-0.49999999999999994	33.04293994002422	0	0	0
40	1	1	0.0	0.0	33.90896534380866	0	0	0
41	1	1	0.0	-0.49999999999999994	34.7749907475931	0	0	0
42	1	1	0.0	0.0	35.64101615137754	0	0	0
43	1	1	0.0	-0.49999999999999994	36.50704155516198	0	0	0
44	1	1	0.0	0.0	37.373066958946424	0	0	0
45	1	1	0.0	-0.49999999999999994	38.239092362730865	0	0	0
46	1	1	0.0	0.0	39.105117766515306	0	0	0
47	1	1	0.0	-0.49999999999999994	39.97114317029975	0	0	0
48	1	1	0.0	0.0	40.83716857408419	0	0	0
49	1	1	0.0	-0.49999999999999994	41.70319397786863	0	0	0
50	1	1	0.0	0.0	42.56921938165307	0	0	0
51	1	1	0.0	-0.49999999999999994	43.43524478543751	0	0	0
52	1	1	0.0	0.0	44.30127018922195	0	0	0
53	1	1	0.0	-0.49999999999999994	45.16729559300639	0	0	0
54	1	1	0.0	0.0	46.033320996790835	0	0	0
55	1	1	0.0	-0.49999999999999994	46.899346400575276	0	0	0
56	1	1	0.0	0.0	47.76537180435972	0	0	0
57	1	1	0.0	-0.49999999999999994	48.63139720814416	0	0	0
58	1	1	0.0	0.0	49.4974226119286	0	0	0
59	1	1	0.0	-0.49999999999999994	50.36344801571304	0	0	0
60	1	1	0.0	0.0	51.22947341949748	0	0	0
61	1	1	0.0	-0.49999999999999994	52.09549882328192	0	0	0
62	1	1	0.0	0.0	52.96152422706636	0	0	0
63	1	1	0.0	-0.49999999999999994	53.827549630850804	0	0	0
64	1	1	0.0	0.0	54.693575034635245	0	0	0
65	1	1	0.0	-0.49999999999999994	55.559600438419686	0	0	0
66	1	1	0.0	0.0	56.42562584220413	0	0	0
67	1	1	0.0	-0.49999999999999994	57.29165124598857	0	0	0
68	1	1	0.0	0.0	58.15767664977301	0	0	0
69	1	1	0.0	-0.49999999999999994	59.02370205355745	0	0	0
70	1	1	0.0	0.0	59.88972745734189	0	0	0
71	1	1	0.0	-0.49999999999999994	60.75575286112633	0	0	0
72	1	1	0.0	0.0	61.62177826491077	0	0	0
73	1	1	0.0	-0.49999999999999994	62.487803668695214	0	0	0
74	1	1	0.0	0.0	63.353829072479655	0	0	0
75	1	1	0.0	-0.49999999999999994	64.21985447626409	0	0	0
76	1	1	0.0	0.0	65.08587988004852	0	0	0
77	1	1	0.0	-0.49999999999999994	65.95190528383296	0	0	0
78	1	1	0.0	0.0	66.81793068761739	0	0	0
79	1	1	0.0	-0.49999999999999994	67.68395609140183	0	0	0
80	1	1	0.0	0.0	68.54998149518626	0	0	0
81	1	1	0.0	-0.49999999999999994	69.41600689897069	0	0	0
82	1	1	0.0	0.0	70.28203230275513	0	0	0
83	1	1	0.0	-0.49999999999999994	71.14805770653956	0	0	0
84	1	1	0.0	0.0	72.014083110324	0	0	0
85	1	1	0.0	-0.49999999999999994	72.88010851410843	0	0	0
86	1	1	0.0	0.0	73.74613391789286	0	0	0
87	1	1	0.0	-0.49999999999999994	74.6121593216773	0	0	0
88	1	1	0.0	0.0	75.47818472546173	0	0	0
89	1	1	0.0	-0.49999999999999994	76.34421012924616	0	0	0
90	1	1	0.0	0.0	77.2102355330306	0	0	0
91	1	1	0.0	-0.49999999999999994	78.07626093681503	0	0	0
92	1	1	0.0	0.0	78.94228634059947	0	0	0
93	1	1	0.0	-0.49999999999999994	79.8083117443839	0	0	0
94	1	1	0.0	0.0	80.67433714816833	0	0	0
95	1	1	0.0	-0.49999999999999994	81.54036255195277	0	0	0
96	1	1	0.0	0.0	82.4063879557372	0	0	0
97	1	1	0.0	-0.49999999999999994	83.27241335952164	0	0	0
98	1	1	0.0	0.0	84.13843876330607	0	0	0
99	1	1	0.0	-0.49999999999999994	85.0044641670905	0	0	0
100	1	1	0.0	0.0	85.87048957087494	0	0	0
101	1	1	0.0	-0.49999999999999994	86.73651497465937	0	0	0
102	1	1	0.0	0.0	87.6025403784438	0	0	0
103	1	1	0.0	-0.49999999999999994	88.46856578222824	0	0	0
104	1	1	0.0	0.0	89.33459118601267	0	0	0
105	1	1	0.0	-0.49999999999999994	90.20061658979711	0	0	0
106	1	1	0.0	0.0	91.06664199358154	0	0	0
107	1	1	0.0	-0.49999999999999994	91.93266739736598	0	0	0
108	1	1	0.0	0.0	92.79869280115041	0	0	0
109	1	1	0.0	-0.49999999999999994	93.66471820493484	0	0	0
110	1	1	0.0	0.0	94.53074360871928	0	0	0
111	1	1	0.0	-0.49999999999999994	95.39676901250371	0	0	0
112	1	1	0.0	0.0	96.26279441628814	0	0	0
113	1	1	0.0	-0.49999999999999994	97.12881982007258	0	0	0
114	1	1	0.0	0.0	97.99484522385701	0	0	0
115	1	1	0.0	-0.49999999999999994	98.86087062764145	0	0	0
116	1	1	0.0	0.0	99.72689603142588	0	0	0
117	1	1	0.0	-0.49999999999999994	100.59292143521031	0	0	0
118	1	1	0.0	0.0	101.45894683899475	0	0	0
119	1	1	0.0	-0.49999999999999994	102.32497224277918	0	0	0
120	1	1	0.0	0.0	103.19099764656362	0	0	0
121	1	1	0.0	-0.49999999999999994	104.05702305034805	0	0	0
122	1	1	0.0	0.0	104.92304845413248	0	0	0
123	1	1	0.0	-0.49999999999999994	105.78907385791692	0	0	0
124	1	1	0.0	0.0	106.65509926170135	0	0	0
125	1	1	0.0	-0.49999999999999994	107.52112466548579	0	0	0
126	1	1	0.0	0.0	108.38715006927022	0	0	0
127	1	1	0.0	-0.49999999999999994	109.25317547305465	0	0	0
128	1	1	0.0	0.0	110.11920087683909	0	0	0
129	1	1	0.0	-0.49999999999999994	110.98522628062352	0	0	0
130	1	1	0.0	0.0	111.85125168440796	0	0	0
131	1	1	0.0	-0.49999999999999994	112.71727708819239	0	0	0
132	1	1	0.0	0.0	113.58330249197682	0	0	0
133	1	1	0.0	-0.49999999999999994	114.44932789576126	0	0	0
134	1	1	0.0	0.0	115.31535329954569	0	0	0
135	1	1	0.0	-0.49999999999999994	116.18137870333013	0	0	0
136	1	1	0.0	0.0	117.04740410711456	0	0	0
137	1	1	0.0	-0.49999999999999994	117.913429510899	0	0	0
138	1	1	0.0	0.0	118.77945491468343	0	0	0
139	1	1	0.0	-0.49999999999999994	119.64548031846786	0	0	0
140	1	1	0.0	0.0	120.5115057222523	0	0	0
141	1	1	0.0	-0.49999999999999994	121.37753112603673	0	0	0
142	1	1	0.0	0.0	122.24355652982116	0	0	0
143	1	1	0.0	-0.49999999999999994	123.1095819336056	0	0	0
144	1	1	0.0	0.0	123.97560733739003	0	0	0
145	1	1	0.0	-0.49999999999999994	124.84163274117446	0	0	0
146	1	1	0.0	0.0	125.7076581449589	0	0	0
147	1	1	0.0	-0.49999999999999994	126.57368354874333	0	0	0
148	1	1	0.0	0.0	127.43970895252777	0	0	0
149	1	1	0.0	-0.49999999999999994	128.3057343563122	0	0	0
150	1	1	0.0	0.0	129.17175976009665	0	0	0
151	1	1	0.0	-0.49999999999999994	130.0377851638811	0	0	0
152	1	1	0.0	0.0	130.90381056766554	0	0	0
153	1	1	0.0	-0.49999999999999994	131.76983597145	0	0	0
154	1	1	0.0	0.0	132.63586137523444	0	0	0
155	1	1	0.0	-0.49999999999999994	133.5018867790189	0	0	0
156	1	1	0.0	0.0	134.36791218280334	0	0	0
157	1	1	0.0	-0.49999999999999994	135.23393758658779	0	0	0
158	1	1	0.0	0.0	136.09996299037223	0	0	0
159	1	1	0.0	-0.49999999999999994	136.96598839415668	0	0	0
160	1	1	0.0	0.0	137.83201379794113	0	0	0
161	1	1	0.0	-0.49999999999999994	138.69803920172558	0	0	0
162	1	1	0.0	0.0	139.56406460551003	0	0	0
163	1	1	0.0	-0.49999999999999994	140.43009000929447	0	0	0
164	1	1	0.0	0.0	141.29611541307892	0	0	0
165	1	1	0.0	-0.49999999999999994	142.16214081686337	0	0	0
166	1	1	0.0	0.0	143.02816622064782	0	0	0
167	1	1	0.0	-0.49999999999999994	143.89419162443227	0	0	0
168	1	1	0.0	0.0	144.76021702821672	0	0	0
169	1	1	0.0	-0.49999999999999994	145.62624243200116	0	0	0
170	1	1	0.0	0.0	146.4922678357856	0	0	0
171	1	1	0.0	-0.49999999999999994	147.35829323957006	0	0	0
172	1	1	0.0	0.0	148.2243186433545	0	0	0
173	1	1	0.0	-0.49999999999999994	149.09034404713896	0	0	0
174	1	1	0.0	0.0	149.9563694509234	0	0	0
175	1	1	0.0	-0.49999999999999994	150.82239485470785	0	0	0
176	1	1	0.0	0.0	151.6884202584923	0	0	0
177	1	1	0.0	-0.49999999999999994	152.55444566227675	0	0	0
178	1	1	0.0	0.0	153.4204710660612	0	0	0
179	1	1	0.0	-0.49999999999999994	154.28649646984564	0	0	0
180	1	1	0.0	0.0	155.1525218736301	0	0	0
181	1	1	0.0	-0.49999999999999994	156.01854727741454	0	0	0
182	1	1	0.0	0.0	156.884572681199	0	0	0
183	1	1	0.0	-0.49999999999999994	157.75059808498344	0	0	0
184	1	1	0.0	0.0	158.61662348876789	0	0	0
185	1	1	0.0	-0.49999999999999994	159.48264889255233	0	0	0
186	1	1	0.0	0.0	160.34867429633678	0	0	0
187	1	1	0.0	-0.49999999999999994	161.21469970012123	0	0	0
188	1	1	0.0	0.0	162.08072510390568	0	0	0
189	1	1	0.0	-0.49999999999999994	162.94675050769013	0	0	0
190	1	1	0.0	0.0	163.81277591147457	0	0	0
191	1	1	0.0	-0.49999999999999994	164.67880131525902	0	0	0
192	1	1	0.0	0.0	165.54482671904347	0	0	0
193	1	1	0.0	-0.49999999999999994	166.41085212282792	0	0	0
194	1	1	0.0	0.0	167.27687752661237	0	0	0
195	1	1	0.0	-0.49999999999999994	168.14290293039682	0	0	0
196	1	1	0.0	0.0	169.00892833418126	0	0	0
197	1	1	0.0	-0.49999999999999994	169.8749537379657	0	0	0
198	1	1	0.0	0.0	170.74097914175016	0	0	0
199	1	1	0.0	-0.49999999999999994	171.6070045455346	0	0	0
200	1	1	0.0	0.0	172.47302994931906	0	0	0
201	1	1	0.0	-0.49999999999999994	173.3390553531035	0	0	0
202	1	1	0.0	0.0	174.20508075688795	0	0	0
203	1	1	0.0	-0.49999999999999994	175.0711061606724	0	0	0
204	1	1	0.0	0.0	175.93713156445685	0	0	0
205	1	1	0.0	-0.49999999999999994	176.8031569682413	0	0	0
206	1	1	0.0	0.0	177.66918237202574	0	0	0
207	1	1	0.0	-0.49999999999999994	178.5352077758102	0	0	0
208	1	1	0.0	0.0	179.40123317959464	0	0	0
209	1	1	0.0	-0.49999999999999994	180.2672585833791	0	0	0
210	1	1	0.0	0.0	181.13328398716354	0	0	0
211	1	1	0.0	-0.49999999999999994	181.99930939094799	0	0	0
212	1	1	0.0	0.0	182.86533479473243	0	0	0
213	1	1	0.0	-0.49999999999999994	183.73136019851688	0	0	0
214	1	1	0.0	0.0	184.59738560230133	0	0	0
215	1	1	0.0	-0.49999999999999994	185.46341100608578	0	0	0
216	1	1	0.0	0.0	186.32943640987023	0	0	0
217	1	1	0.0	-0.49999999999999994	187.19546181365467	0	0	0
218	1	1	0.0	0.0	188.06148721743912	0	0	0
219	1	1	0.0	-0.49999999999999994	188.92751262122357	0	0	0
220	1	1	0.0	0.0	189.79353802500802	0	0	0
221	1	1	0.0	-0.49999999999999994	190.65956342879247	0	0	0
222	1	1	0.0	0.0	191.52558883257691	0	0	0
223	1	1	0.0	-0.49999999999999994	192.39161423636136	0	0	0
224	1	1	0.0	0.0	193.2576396401458	0	0	0
225	1	1	0.0	-0.49999999999999994	194.12366504393026	0	0	0
226	1	1	0.0	0.0	194.9896904477147	0	0	0
227	1	1	0.0	-0.49999999999999994	195.85571585149916	0	0	0
228	1	1	0.0	0.0	196.7217412552836	0	0	0
229	1	1	0.0	-0.49999999999999994	197.58776665906805	0	0	0
230	1	1	0.0	0.0	198.4537920628525	0	0	0
231	1	1	0.0	-0.49999999999999994	199.31981746663695	0	0	0
232	1	1	0.0	0.0	200.1858428704214	0	0	0
233	1	1	0.0	-0.49999999999999994	201.05186827420584	0	0	0
234	1	1	0.0	0.0	201.9178936779903	0	0	0
235	1	1	0.0	-0.49999999999999994	202.78391908177474	0	0	0
236	1	1	0.0	0.0	203.6499444855592	0	0	0
237	1	1	0.0	-0.49999999999999994	204.51596988934364	0	0	0
238	1	1	0.0	0.0	205.38199529312809	0	0	0
239	1	1	0.0	-0.49999999999999994	206.24802069691253	0	0	0
240	1	1	0.0	0.0	207.11404610069698	0	0	0
241	1	1	0.0	-0.49999999999999994	207.98007150448143	0	0	0
242	1	1	0.0	0.0	208.84609690826588	0	0	0
243	1	1	0.0	-0.49999999999999994	209.71212231205033	0	0	0
244	1	1	0.0	0.0	210.57814771583477	0	0	0
245	1	1	0.0	-0.49999999999999994	211.44417311961922	0	0	0
246	1	1	0.0	0.0	212.31019852340367	0	0	0
247	1	1	0.0	-0.49999999999999994	213.17622392718812	0	0	0
248	1	1	0.0	0.0	214.04224933097257	0	0	0
249	1	1	0.0	-0.49999999999999994	214.90827473475701	0	0	0
250	1	1	0.0	0.0	215.77430013854146	0	0	0
251	1	1	0.0	-0.49999999999999994	216.6403255423259	0	0	0
252	1	1	-0.9287701787795697	-0.8064355112458061	216.8488518774908	0	0	0
253	1	1	-1.8575403575591318	-1.1760796161887932	216.87622322547878	0	0	0
254	1	1	-2.7863105363386937	-1.3371973859668822	217.21003008471254	0	0	0
255	1	1	-3.7150807151182557	-1.7068414909098693	217.23740143270052	0	0	0
256	1	1	-4.643850893897818	-1.8679592606879583	217.57120829193428	0	0	0
257	1	1	-5.5726210726773795	-2.237603365630945	217.59857963992226	0	0	0
258	1	1	-6.501391251456941	-2.398721135409034	217.93238649915602	0	0	0
259	1	1	-7.430161430236503	-2.7683652403520207	217.959757847144	0	0	0
260	1	1	-8.358931609016066	-2.9294830101301095	218.29356470637777	0	0	0
261	1	1	-9.287701787795628	-3.2991271150730963	218.32093605436575	0	0	0
262	1	1	-10.21647196657519	-3.460244884851185	218.6547429135995	0	0	0
263	1	1	-11.145242145354752	-3.829888989794172	218.6821142615875	0	0	0
264	1	1	-12.074012324134314	-3.9910067595722607	219.01592112082125	0	0	0
265	1	1	-13.002782502913876	-4.3606508645152475	219.04329246880923	0	0	0
266	1	1	-13.931552681693438	-4.521768634293337	219.377099328043	0	0	0
267	1	1	-14.860322860473	-4.891412739236324	219.40447067603097	0	0	0
268	1	1	-15.789093039252561	-5.052530509014413	219.73827753526473	0	0	0
269	1	1	-16.717863218032125	-5.4221746139574	219.7656488832527	0	0	0
270	1	1	-17.646633396811687	-5.583292383735489	220.09945574248647	0	0	0
271	1	1	-18.57540357559125	-5.952936488678476	220.12682709047445	0	0	0
272	1	1	-19.50417375437081	-6.114054258456565	220.4606339497082	0	0	0
273	1	1	-20.432943933150373	-6.483698363399552	220.4880052976962	0	0	0
274	1	1	-21.361714111929935	-6.644816133177641	220.82181215692995	0	0	0
275	1	1	-22.290484290709497	-7.014460238120628	220.84918350491793	0	0	0
276	1	1	-23.21925446948906	-7.175578007898717	221.1829903641517	0	0	0
277	1	1	-24.14802464826862	-7.545222112841704	221.21036171213967	0	0	0
278	1	1	-25.076794827048182	-7.706339882619793	221.54416857137343	0	0	0
279	1	1	-26.005565005827744	-8.07598398756278	221.5715399193614	0	0	0
280	1	1	-26.934335184607306	-8.23710175734087	221.90534677859517	0	0	0
281	1	1	-27.863105363386868	-8.606745862283857	221.93271812658315	0	0	0
282	1	1	-28.79187554216643	-8.767863632061946	222.26652498581691	0	0	0
283	1	1	-29.720645720945992	-9.137507737004933	222.2938963338049	0	0	0
284	1	1	-30.649415899725554	-9.298625506783022	222.62770319303866	0	0	0
285	1	1	-31.578186078505116	-9.668269611726009	222.65507454102664	0	0	0
286	1	1	-32.50695625728468	-9.829387381504098	222.9888814002604	0	0	0
287	1	1	-33.43572643606424	-10.199031486447085	223.01625274824838	0	0	0
288	1	1	-34.36449661484381	-10.360149256225174	223.35005960748214	0	0	0
289	1	1	-35.293266793623374	-10.729793361168161	223.37743095547012	0	0	0
290	1	1	-36.22203697240294	-10.89091113094625	223.71123781470388	0	0	0
291	1	1	-37.150807151182505	-11.260555235889237	223.73860916269186	0	0	0
292	1	1	-38.07957732996207	-11.421673005667326	224.07241602192562	0	0	0
293	1	1	-39.008347508741636	-11.791317110610313	224.0997873699136	0	0	0
294	1	1	-39.9371176875212	-11.952434880388402	224.43359422914736	0	0	0
295	1	1	-40.86588786630077	-12.32207898533139	224.46096557713534	0	0	0
296	1	1	-41.79465804508033	-12.483196755109478	224.7947724363691	0	0	0
297	1	1	-42.7234282238599	-12.852840860052465	224.82214378435708	0	0	0
298	1	1	-43.65219840263946	-13.013958629830555	225.15595064359084	0	0	0
299	1	1	-44.58096858141903	-13.383602734773541	225.18332199157882	0	0	0
300	1	1	-45.509738760198594	-13.54472050455163	225.51712885081258	0	0	0
301	1	1	-46.43850893897816	-13.914364609494617	225.54450019880056	0	0	0
302	1	1	-47.367279117757725	-14.075482379272707	225.87830705803432	0	0	0
303	1	1	-48.29604929653729	-14.445126484215693	225.9056784060223	0	0	0
304	1	1	-49.224819475316856	-14.606244253993783	226.23948526525606	0	0	0
305	1	1	-50.15358965409642	-14.97588835893677	226.26685661324404	0	0	0
306	1	1	-51.08235983287599	-15.137006128714859	226.6006634724778	0	0	0
307	1	1	-52.01113001165555	-15.506650233657846	226.62803482046579	0	0	0
308	1	1	-52.93990019043512	-15.667768003435935	226.96184167969955	0	0	0
309	1	1	-53.86867036921468	-16.037412108378923	226.98921302768753	0	0	0
310	1	1	-54.79744054799425	-16.19852987815701	227.3230198869213	0	0	0
311	1	1	-55.726210726773814	-16.5681739831	227.35039123490927	0	0	0
312	1	1	-56.65498090555338	-16.729291752878087	227.68419809414303	0	0	0
313	1	1	-57.583751084332945	-17.098935857821076	227.711569442131	0	0	0
314	1	1	-58.51252126311251	-17.260053627599163	228.04537630136477	0	0	0
315	1	1	-59.441291441892076	-17.62969773254215	228.07274764935275	0	0	0
316	1	1	-60.37006162067164	-17.79081550232024	228.4065545085865	0	0	0
317	1	1	-61.29883179945121	-18.160459607263228	228.4339258565745	0	0	0
318	1	1	-62.22760197823077	-18.321577377041315	228.76773271580825	0	0	0
319	1	1	-63.15637215701034	-18.691221481984304	228.79510406379623	0	0	0
320	1	1	-64.0851423357899	-18.85233925176239	229.12891092303	0	0	0
321	1	1	-65.01391251456945	-19.22198335670538	229.15628227101797	0	0	0
322	1	1	-65.94268269334901	-19.383101126483467	229.49008913025173	0	0	0
323	1	1	-66.87145287212857	-19.752745231426456	229.5174604782397	0	0	0
324	1	1	-67.80022305090813	-19.913863001204543	229.85126733747347	0	0	0
325	1	1	-68.72899322968769	-20.283507106147532	229.87863868546145	0	0	0
326	1	1	-69.65776340846725	-20.44462487592562	230.2124455446952	0	0	0
327	1	1	-70.5865335872468	-20.814268980868608	230.2398168926832	0	0	0
328	1	1	-71.51530376602636	-20.975386750646695	230.57362375191695	0	0	0
329	1	1	-72.44407394480592	-21.345030855589684	230.60099509990494	0	0	0
330	1	1	-73.37284412358548	-21.50614862536777	230.9348019591387	0	0	0
331	1	1	-74.30161430236504	-21.87579273031076	230.96217330712668	0	0	0
332	1	1	-75.2303844811446	-22.036910500088847	231.29598016636044	0	0	0
333	1	1	-76.15915465992416	-22.406554605031836	231.32335151434842	0	0	0
334	1	1	-77.08792483870371	-22.567672374809923	231.65715837358218	0	0	0
335	1	1	-78.01669501748327	-22.937316479752912	231.68452972157016	0	0	0
336	1	1	-78.94546519626283	-23.098434249531	232.01833658080392	0	0	0
337	1	1	-79.87423537504239	-23.468078354473988	232.0457079287919	0	0	0
338	1	1	-80.80300555382195	-23.629196124252076	232.37951478802566	0	0	0
339	1	1	-81.7317757326015	-23.998840229195064	232.40688613601364	0	0	0
340	1	1	-82.66054591138106	-24.15995799897315	232.7406929952474	0	0	0
341	1	1	-83.58931609016062	-24.52960210391614	232.76806434323538	0	0	0
342	1	1	-84.51808626894018	-24.690719873694228	233.10187120246914	0	0	0
343	1	1	-85.44685644771974	-25.060363978637216	233.12924255045712	0	0	0
344	1	1	-86.3756266264993	-25.221481748415304	233.46304940969088	0	0	0
345	1	1	-87.30439680527886	-25.591125853358292	233.49042075767886	0	0	0
346	1	1	-88.23316698405841	-25.75224362313638	233.82422761691262	0	0	0
347	1	1	-89.16193716283797	-26.12188772807937	233.8515989649006	0	0	0
348	1	1	-90.09070734161753	-26.283005497857456	234.18540582413436	0	0	0
349	1	1	-91.01947752039709	-26.652649602800444	234.21277717212234	0	0	0
350	1	1	-91.94824769917665	-26.813767372578532	234.5465840313561	0	0	0
351	1	1	-92.8770178779562	-27.18341147752152	234.57395537934408	0	0	0
352	1	1	-93.80578805673576	-27.344529247299608	234.90776223857785	0	0	0
353	1	1	-94.73455823551532	-27.714173352242597	234.93513358656583	0	0	0
354	1	1	-95.66332841429488	-27.875291122020684	235.2689404457996	0	0	0
355	1	1	-96.59209859307444	-28.244935226963673	235.29631179378757	0	0	0
356	1	1	-97.520868771854	-28.40605299674176	235.63011865302133	0	0	0
357	1	1	-98.44963895063356	-28.77569710168475	235.6574900010093	0	0	0
358	1	1	-99.37840912941311	-28.936814871462836	235.99129686024307	0	0	0
359	1	1	-100.30717930819267	-29.306458976405825	236.01866820823105	0	0	0
360	1	1	-101.23594948697223	-29.467576746183912	236.3524750674648	0	0	0
361	1	1	-102.16471966575179	-29.8372208511269	236.3798464154528	0	0	0
362	1	1	-103.09348984453135	-29.99833862090499	236.71365327468655	0	0	0
363	1	1	-104.0222600233109	-30.367982725847977	236.74102462267453	0	0	0
364	1	1	-104.95103020209046	-30.529100495626064	237.0748314819083	0	0	0
365	1	1	-105.87980038087002	-30.898744600569053	237.10220282989627	0	0	0
366	1	1	-106.80857055964958	-31.05986237034714	237.43600968913003	0	0	0
367	1	1	-107.73734073842914	-31.42950647529013	237.463381037118	0	0	0
368	1	1	-108.6661109172087	-31.590624245068216	237.79718789635177	0	0	0
369	1	1	-109.59488109598826	-31.960268350011205	237.82455924433975	0	0	0
370	1	1	-110.52365127476781	-32.12138611978929	238.1583661035735	0	0	0
371	1	1	-111.45242145354737	-32.49103022473228	238.1857374515615	0	0	0
372	1	1	-112.38119163232693	-32.652147994510365	238.51954431079525	0	0	0
373	1	1	-113.30996181110649	-33.02179209945335	238.54691565878323	0	0	0
374	1	1	-114.23873198988605	-33.18290986923144	238.880722518017	0	0	0
375	1	1	-115.1675021686656	-33.55255397417442	238.90809386600498	0	0	0
376	1	1	-116.09627234744516	-33.71367174395251	239.24190072523874	0	0	0
377	1	1	-117.02504252622472	-34.083315848895495	239.26927207322672	0	0	0
378	1	1	-117.95381270500428	-34.24443361867358	239.60307893246048	0	0	0
379	1	1	-118.88258288378384	-34.61407772361657	239.63045028044846	0	0	0
380	1	1	-119.8113530625634	-34.775195493394655	239.96425713968222	0	0	0
381	1	1	-120.74012324134296	-35.14483959833764	239.9916284876702	0	0	0
382	1	1	-121.66889342012252	-35.30595736811573	240.32543534690396	0	0	0
383	1	1	-122.59766359890207	-35.67560147305871	240.35280669489194	0	0	0
384	1	1	-123.52643377768163	-35.8367192428368	240.6866135541257	0	0	0
385	1	1	-124.45520395646119	-36.206363347779785	240.71398490211368	0	0	0
386	1	1	-125.38397413524075	-36.36748111755787	241.04779176134744	0	0	0
387	1	1	-126.3127443140203	-36.73712522250086	241.07516310933542	0	0	0
388	1	1	-127.24151449279987	-36.898242992278945	241.40896996856918	0	0	0
389	1	1	-128.17028467157942	-37.26788709722193	241.43634131655716	0	0	0
390	1	1	-129.09905485035898	-37.42900486700002	241.77014817579092	0	0	0
391	1	1	-130.02782502913854	-37.798648971943	241.7975195237789	0	0	0
392	1	1	-130.9565952079181	-37.95976674172109	242.13132638301266	0	0	0
393	1	1	-131.88536538669766	-38.329410846664075	242.15869773100064	0	0	0
394	1	1	-132.81413556547722	-38.49052861644216	242.4925045902344	0	0	0
395	1	1	-133.74290574425677	-38.86017272138515	242.51987593822238	0	0	0
396	1	1	-134.67167592303633	-39.021290491163235	242.85368279745614	0	0	0
397	1	1	-135.6004461018159	-39.39093459610622	242.88105414544412	0	0	0
398	1	1	-136.52921628059545	-39.55205236588431	243.21486100467789	0	0	0
399	1	1	-137.457986459375	-39.92169647082729	243.24223235266587	0	0	0
400	1	1	-138.38675663815457	-40.08281424060538	243.57603921189963	0	0	0
401	1	1	-139.31552681693412	-40.452458345548365	243.6034105598876	0	0	0
402	1	1	-140.24429699571368	-40.61357611532645	243.93721741912137	0	0	0
403	1	1	-141.17306717449324	-40.98322022026944	243.96458876710935	0	0	0
404	1	1	-142.1018373532728	-41.144337990047525	244.2983956263431	0	0	0
405	1	1	-143.03060753205236	-41.51398209499051	244.3257669743311	0	0	0
406	1	1	-143.95937771083192	-41.6750998647686	244.65957383356485	0	0	0
407	1	1	-144.88814788961147	-42.04474396971158	244.68694518155283	0	0	0
408	1	1	-145.81691806839103	-42.20586173948967	245.0207520407866	0	0	0
409	1	1	-146.7456882471706	-42.575505844432655	245.04812338877457	0	0	0
410	1	1	-147.67445842595015	-42.73662361421074	245.38193024800833	0	0	0
411	1	1	-148.6032286047297	-43.10626771915373	245.4093015959963	0	0	0
412	1	1	-149.53199878350927	-43.267385488931815	245.74310845523007	0	0	0
413	1	1	-150.46076896228882	-43.6370295938748	245.77047980321805	0	0	0
414	1	1	-151.38953914106838	-43.79814736365289	246.1042866624518	0	0	0
415	1	1	-152.31830931984794	-44.16779146859587	246.1316580104398	0	0	0
416	1	1	-153.2470794986275	-44.32890923837396	246.46546486967355	0	0	0
417	1	1	-154.17584967740706	-44.698553343316945	246.49283621766153	0	0	0
418	1	1	-155.10461985618662	-44.85967111309503	246.8266430768953	0	0	0
419	1	1	-156.03339003496617	-45.22931521803802	246.85401442488327	0	0	0
420	1	1	-156.96216021374573	-45.390432987816105	247.18782128411704	0	0	0
421	1	1	-157.8909303925253	-45.76007709275909	247.21519263210502	0	0	0
422	1	1	-158.81970057130485	-45.92119486253718	247.54899949133878	0	0	0
423	1	1	-159.7484707500844	-46.29083896748016	247.57637083932676	0	0	0
424	1	1	-160.67724092886397	-46.45195673725825	247.91017769856052	0	0	0
425	1	1	-161.60601110764352	-46.821600842201235	247.9375490465485	0	0	0
426	1	1	-162.53478128642308	-46.98271861197932	248.27135590578226	0	0	0
427	1	1	-163.46355146520264	-47.35236271692231	248.29872725377024	0	0	0
428	1	1	-164.3923216439822	-47.513480486700395	248.632534113004	0	0	0
429	1	1	-165.32109182276176	-47.88312459164338	248.65990546099198	0	0	0
430	1	1	-166.24986200154132	-48.04424236142147	248.99371232022574	0	0	0
431	1	1	-167.17863218032088	-48.41388646636445	249.02108366821372	0	0	0
432	1	1	-168.10740235910043	-48.57500423614254	249.35489052744748	0	0	0
433	1	1	-169.03617253788	-48.944648341085525	249.38226187543546	0	0	0
434	1	1	-169.96494271665955	-49.10576611086361	249.71606873466922	0	0	0
435	1	1	-170.8937128954391	-49.4754102158066	249.7434400826572	0	0	0
436	1	1	-171.82248307421867	-49.636527985584685	250.07724694189096	0	0	0
437	1	1	-172.75125325299823	-50.00617209052767	250.10461828987894	0	0	0
438	1	1	-173.68002343177778	-50.16728986030576	250.4384251491127	0	0	0
439	1	1	-174.60879361055734	-50.53693396524874	250.46579649710068	0	0	0
440	1	1	-175.5375637893369	-50.69805173502683	250.79960335633444	0	0	0
441	1	1	-176.46633396811646	-51.067695839969815	250.82697470432242	0	0	0
442	1	1	-177.39510414689602	-51.2288136097479	251.16078156355618	0	0	0
443	1	1	-178.32387432567558	-51.59845771469089	251.18815291154417	0	0	0
444	1	1	-179.25264450445513	-51.759575484468975	251.52195977077793	0	0	0
445	1	1	-180.1814146832347	-52.12921958941196	251.5493311187659	0	0	0
446	1	1	-181.11018486201425	-52.29033735919005	251.88313797799967	0	0	0
447	1	1	-182.0389550407938	-52.65998146413303	251.91050932598765	0	0	0
448	1	1	-182.96772521957337	-52.82109923391112	252.2443161852214	0	0	0
449	1	1	-183.89649539835293	-53.190743338854105	252.2716875332094	0	0	0
450	1	1	-184.82526557713248	-53.35186110863219	252.60549439244315	0	0	0
451	1	1	-185.75403575591204	-53.72150521357518	252.63286574043113	0	0	0
452	1	1	-186.6828059346916	-53.882622983353265	252.9666725996649	0	0	0
453	1	1	-187.61157611347116	-54.25226708829625	252.99404394765287	0	0	0
454	1	1	-188.54034629225072	-54.41338485807434	253.32785080688663	0	0	0
455	1	1	-189.46911647103028	-54.78302896301732	253.3552221548746	0	0	0
456	1	1	-190.39788664980983	-54.94414673279541	253.68902901410837	0	0	0
457	1	1	-191.3266568285894	-55.313790837738395	253.71640036209635	0	0	0
458	1	1	-192.25542700736895	-55.47490860751648	254.0502072213301	0	0	0
459	1	1	-193.1841971861485	-55.84455271245947	254.0775785693181	0	0	0
460	1	1	-194.11296736492807	-56.005670482237555	254.41138542855185	0	0	0
461	1	1	-195.04173754370763	-56.37531458718054	254.43875677653983	0	0	0
462	1	1	-195.97050772248718	-56.53643235695863	254.7725636357736	0	0	0
463	1	1	-196.89927790126674	-56.90607646190161	254.79993498376157	0	0	0
464	1	1	-197.8280480800463	-57.0671942316797	255.13374184299533	0	0	0
465	1	1	-198.75681825882586	-57.436838336622685	255.16111319098331	0	0	0
466	1	1	-199.68558843760542	-57.59795610640077	255.49492005021708	0	0	0
467	1	1	-200.61435861638498	-57.96760021134376	255.52229139820506	0	0	0
468	1	1	-201.54312879516453	-58.128717981121845	255.85609825743882	0	0	0
469	1	1	-202.4718989739441	-58.49836208606483	255.8834696054268	0	0	0
470	1	1	-203.40066915272365	-58.65947985584292	256.2172764646606	0	0	0
471	1	1	-204.3294393315032	-59.0291239607859	256.24464781264857	0	0	0
472	1	1	-205.25820951028277	-59.19024173056399	256.57845467188235	0	0	0
473	1	1	-206.18697968906233	-59.559885835506975	256.60582601987034	0	0	0
474	1	1	-207.11574986784188	-59.72100360528506	256.9396328791041	0	0	0
475	1	1	-208.04452004662144	-60.09064771022805	256.9670042270921	0	0	0
476	1	1	-208.973290225401	-60.251765480006135	257.3008110863259	0	0	0
477	1	1	-209.90206040418056	-60.62140958494912	257.3281824343139	0	0	0
478	1	1	-210.83083058296012	-60.78252735472721	257.66198929354766	0	0	0
479	1	1	-211.75960076173968	-61.15217145967019	257.68936064153564	0	0	0
480	1	1	-212.68837094051923	-61.31328922944828	258.02316750076943	0	0	0
481	1	1	-213.6171411192988	-61.682933334391265	258.0505388487574	0	0	0
482	1	1	-214.54591129807835	-61.84405110416935	258.3843457079912	0	0	0
483	1	1	-215.4746814768579	-62.21369520911234	258.4117170559792	0	0	0
484	1	1	-216.40345165563747	-62.374812978890425	258.74552391521297	0	0	0
485	1	1	-217.33222183441703	-62.74445708383341	258.77289526320095	0	0	0
486	1	1	-218.26099201319659	-62.9055748536115	259.10670212243474	0	0	0
487	1	1	-219.18976219197614	-63.27521895855448	259.1340734704227	0	0	0
488	1	1	-220.1185323707557	-63.43633672833257	259.4678803296565	0	0	0
489	1	1	-221.04730254953526	-63.805980833275555	259.4952516776445	0	0	0
490	1	1	-221.97607272831482	-63.96709860305364	259.8290585368783	0	0	0
491	1	1	-222.90484290709438	-64.33674270799663	259.85642988486626	0	0	0
492	1	1	-223.83361308587394	-64.49786047777472	260.19023674410005	0	0	0
493	1	1	-224.7623832646535	-64.86750458271771	260.217608092088	0	0	0
494	1	1	-225.69115344343305	-65.0286223524958	260.5514149513218	0	0	0
495	1	1	-226.6199236222126	-65.3982664574388	260.5787862993098	0	0	0
496	1	1	-227.54869380099217	-65.55938422721688	260.9125931585436	0	0	0
497	1	1	-228.47746397977173	-65.92902833215987	260.93996450653157	0	0	0
498	1	1	-229.40623415855129	-66.09014610193796	261.27377136576536	0	0	0