bb601nuc1bl300bn4d30tot1200V2

1201 atoms
1200 bonds
1202 angles

1 atom types
1 bond types
1 angle types

-1000 1000 xlo xhi
-1000 1000 ylo yhi
-1000 1000 zlo zhi

Masses

1 1

Atoms

1	1	1	0.0	0.0	0.0	0	0	0
2	1	1	0.0	0.0	1.0	0	0	0
3	1	1	0.0	-0.49999999999999994	1.8660254037844388	0	0	0
4	1	1	0.0	0.0	2.7320508075688776	0	0	0
5	1	1	0.0	-0.49999999999999994	3.5980762113533165	0	0	0
6	1	1	0.0	0.0	4.464101615137755	0	0	0
7	1	1	0.0	-0.49999999999999994	5.330127018922194	0	0	0
8	1	1	0.0	0.0	6.196152422706632	0	0	0
9	1	1	0.0	-0.49999999999999994	7.06217782649107	0	0	0
10	1	1	0.0	0.0	7.928203230275509	0	0	0
11	1	1	0.0	-0.49999999999999994	8.794228634059948	0	0	0
12	1	1	0.0	0.0	9.660254037844387	0	0	0
13	1	1	0.0	-0.49999999999999994	10.526279441628827	0	0	0
14	1	1	0.0	0.0	11.392304845413266	0	0	0
15	1	1	0.0	-0.49999999999999994	12.258330249197705	0	0	0
16	1	1	0.0	0.0	13.124355652982144	0	0	0
17	1	1	0.0	-0.49999999999999994	13.990381056766584	0	0	0
18	1	1	0.0	0.0	14.856406460551023	0	0	0
19	1	1	0.0	-0.49999999999999994	15.722431864335462	0	0	0
20	1	1	0.0	0.0	16.5884572681199	0	0	0
21	1	1	0.0	-0.49999999999999994	17.454482671904337	0	0	0
22	1	1	0.0	0.0	18.320508075688775	0	0	0
23	1	1	0.0	-0.49999999999999994	19.186533479473212	0	0	0
24	1	1	0.0	0.0	20.05255888325765	0	0	0
25	1	1	0.0	-0.49999999999999994	20.918584287042087	0	0	0
26	1	1	0.0	0.0	21.784609690826525	0	0	0
27	1	1	0.0	-0.49999999999999994	22.650635094610962	0	0	0
28	1	1	0.0	0.0	23.5166604983954	0	0	0
29	1	1	0.0	-0.49999999999999994	24.382685902179837	0	0	0
30	1	1	0.0	0.0	25.248711305964274	0	0	0
31	1	1	0.0	-0.49999999999999994	26.114736709748712	0	0	0
32	1	1	0.0	0.0	26.98076211353315	0	0	0
33	1	1	0.0	-0.49999999999999994	27.846787517317587	0	0	0
34	1	1	0.0	0.0	28.712812921102024	0	0	0
35	1	1	0.0	-0.49999999999999994	29.578838324886462	0	0	0
36	1	1	0.0	0.0	30.4448637286709	0	0	0
37	1	1	0.0	-0.49999999999999994	31.310889132455337	0	0	0
38	1	1	0.0	0.0	32.17691453623978	0	0	0
39	1	1	0.0	-0.49999999999999994	33.04293994002422	0	0	0
40	1	1	0.0	0.0	33.90896534380866	0	0	0
41	1	1	0.0	-0.49999999999999994	34.7749907475931	0	0	0
42	1	1	0.0	0.0	35.64101615137754	0	0	0
43	1	1	0.0	-0.49999999999999994	36.50704155516198	0	0	0
44	1	1	0.0	0.0	37.373066958946424	0	0	0
45	1	1	0.0	-0.49999999999999994	38.239092362730865	0	0	0
46	1	1	0.0	0.0	39.105117766515306	0	0	0
47	1	1	0.0	-0.49999999999999994	39.97114317029975	0	0	0
48	1	1	0.0	0.0	40.83716857408419	0	0	0
49	1	1	0.0	-0.49999999999999994	41.70319397786863	0	0	0
50	1	1	0.0	0.0	42.56921938165307	0	0	0
51	1	1	0.0	-0.49999999999999994	43.43524478543751	0	0	0
52	1	1	0.0	0.0	44.30127018922195	0	0	0
53	1	1	0.0	-0.49999999999999994	45.16729559300639	0	0	0
54	1	1	0.0	0.0	46.033320996790835	0	0	0
55	1	1	0.0	-0.49999999999999994	46.899346400575276	0	0	0
56	1	1	0.0	0.0	47.76537180435972	0	0	0
57	1	1	0.0	-0.49999999999999994	48.63139720814416	0	0	0
58	1	1	0.0	0.0	49.4974226119286	0	0	0
59	1	1	0.0	-0.49999999999999994	50.36344801571304	0	0	0
60	1	1	0.0	0.0	51.22947341949748	0	0	0
61	1	1	0.0	-0.49999999999999994	52.09549882328192	0	0	0
62	1	1	0.0	0.0	52.96152422706636	0	0	0
63	1	1	0.0	-0.49999999999999994	53.827549630850804	0	0	0
64	1	1	0.0	0.0	54.693575034635245	0	0	0
65	1	1	0.0	-0.49999999999999994	55.559600438419686	0	0	0
66	1	1	0.0	0.0	56.42562584220413	0	0	0
67	1	1	0.0	-0.49999999999999994	57.29165124598857	0	0	0
68	1	1	0.0	0.0	58.15767664977301	0	0	0
69	1	1	0.0	-0.49999999999999994	59.02370205355745	0	0	0
70	1	1	0.0	0.0	59.88972745734189	0	0	0
71	1	1	0.0	-0.49999999999999994	60.75575286112633	0	0	0
72	1	1	0.0	0.0	61.62177826491077	0	0	0
73	1	1	0.0	-0.49999999999999994	62.487803668695214	0	0	0
74	1	1	0.0	0.0	63.353829072479655	0	0	0
75	1	1	0.0	-0.49999999999999994	64.21985447626409	0	0	0
76	1	1	0.0	0.0	65.08587988004852	0	0	0
77	1	1	0.0	-0.49999999999999994	65.95190528383296	0	0	0
78	1	1	0.0	0.0	66.81793068761739	0	0	0
79	1	1	0.0	-0.49999999999999994	67.68395609140183	0	0	0
80	1	1	0.0	0.0	68.54998149518626	0	0	0
81	1	1	0.0	-0.49999999999999994	69.41600689897069	0	0	0
82	1	1	0.0	0.0	70.28203230275513	0	0	0
83	1	1	0.0	-0.49999999999999994	71.14805770653956	0	0	0
84	1	1	0.0	0.0	72.014083110324	0	0	0
85	1	1	0.0	-0.49999999999999994	72.88010851410843	0	0	0
86	1	1	0.0	0.0	73.74613391789286	0	0	0
87	1	1	0.0	-0.49999999999999994	74.6121593216773	0	0	0
88	1	1	0.0	0.0	75.47818472546173	0	0	0
89	1	1	0.0	-0.49999999999999994	76.34421012924616	0	0	0
90	1	1	0.0	0.0	77.2102355330306	0	0	0
91	1	1	0.0	-0.49999999999999994	78.07626093681503	0	0	0
92	1	1	0.0	0.0	78.94228634059947	0	0	0
93	1	1	0.0	-0.49999999999999994	79.8083117443839	0	0	0
94	1	1	0.0	0.0	80.67433714816833	0	0	0
95	1	1	0.0	-0.49999999999999994	81.54036255195277	0	0	0
96	1	1	0.0	0.0	82.4063879557372	0	0	0
97	1	1	0.0	-0.49999999999999994	83.27241335952164	0	0	0
98	1	1	0.0	0.0	84.13843876330607	0	0	0
99	1	1	0.0	-0.49999999999999994	85.0044641670905	0	0	0
100	1	1	0.0	0.0	85.87048957087494	0	0	0
101	1	1	0.0	-0.49999999999999994	86.73651497465937	0	0	0
102	1	1	0.0	0.0	87.6025403784438	0	0	0
103	1	1	0.0	-0.49999999999999994	88.46856578222824	0	0	0
104	1	1	0.0	0.0	89.33459118601267	0	0	0
105	1	1	0.0	-0.49999999999999994	90.20061658979711	0	0	0
106	1	1	0.0	0.0	91.06664199358154	0	0	0
107	1	1	0.0	-0.49999999999999994	91.93266739736598	0	0	0
108	1	1	0.0	0.0	92.79869280115041	0	0	0
109	1	1	0.0	-0.49999999999999994	93.66471820493484	0	0	0
110	1	1	0.0	0.0	94.53074360871928	0	0	0
111	1	1	0.0	-0.49999999999999994	95.39676901250371	0	0	0
112	1	1	0.0	0.0	96.26279441628814	0	0	0
113	1	1	0.0	-0.49999999999999994	97.12881982007258	0	0	0
114	1	1	0.0	0.0	97.99484522385701	0	0	0
115	1	1	0.0	-0.49999999999999994	98.86087062764145	0	0	0
116	1	1	0.0	0.0	99.72689603142588	0	0	0
117	1	1	0.0	-0.49999999999999994	100.59292143521031	0	0	0
118	1	1	0.0	0.0	101.45894683899475	0	0	0
119	1	1	0.0	-0.49999999999999994	102.32497224277918	0	0	0
120	1	1	0.0	0.0	103.19099764656362	0	0	0
121	1	1	0.0	-0.49999999999999994	104.05702305034805	0	0	0
122	1	1	0.0	0.0	104.92304845413248	0	0	0
123	1	1	0.0	-0.49999999999999994	105.78907385791692	0	0	0
124	1	1	0.0	0.0	106.65509926170135	0	0	0
125	1	1	0.0	-0.49999999999999994	107.52112466548579	0	0	0
126	1	1	0.0	0.0	108.38715006927022	0	0	0
127	1	1	0.0	-0.49999999999999994	109.25317547305465	0	0	0
128	1	1	0.0	0.0	110.11920087683909	0	0	0
129	1	1	0.0	-0.49999999999999994	110.98522628062352	0	0	0
130	1	1	0.0	0.0	111.85125168440796	0	0	0
131	1	1	0.0	-0.49999999999999994	112.71727708819239	0	0	0
132	1	1	0.0	0.0	113.58330249197682	0	0	0
133	1	1	0.0	-0.49999999999999994	114.44932789576126	0	0	0
134	1	1	0.0	0.0	115.31535329954569	0	0	0
135	1	1	0.0	-0.49999999999999994	116.18137870333013	0	0	0
136	1	1	0.0	0.0	117.04740410711456	0	0	0
137	1	1	0.0	-0.49999999999999994	117.913429510899	0	0	0
138	1	1	0.0	0.0	118.77945491468343	0	0	0
139	1	1	0.0	-0.49999999999999994	119.64548031846786	0	0	0
140	1	1	0.0	0.0	120.5115057222523	0	0	0
141	1	1	0.0	-0.49999999999999994	121.37753112603673	0	0	0
142	1	1	0.0	0.0	122.24355652982116	0	0	0
143	1	1	0.0	-0.49999999999999994	123.1095819336056	0	0	0
144	1	1	0.0	0.0	123.97560733739003	0	0	0
145	1	1	0.0	-0.49999999999999994	124.84163274117446	0	0	0
146	1	1	0.0	0.0	125.7076581449589	0	0	0
147	1	1	0.0	-0.49999999999999994	126.57368354874333	0	0	0
148	1	1	0.0	0.0	127.43970895252777	0	0	0
149	1	1	0.0	-0.49999999999999994	128.3057343563122	0	0	0
150	1	1	0.0	0.0	129.17175976009665	0	0	0
151	1	1	0.0	-0.49999999999999994	130.0377851638811	0	0	0
152	1	1	0.0	0.0	130.90381056766554	0	0	0
153	1	1	0.0	-0.49999999999999994	131.76983597145	0	0	0
154	1	1	0.0	0.0	132.63586137523444	0	0	0
155	1	1	0.0	-0.49999999999999994	133.5018867790189	0	0	0
156	1	1	0.0	0.0	134.36791218280334	0	0	0
157	1	1	0.0	-0.49999999999999994	135.23393758658779	0	0	0
158	1	1	0.0	0.0	136.09996299037223	0	0	0
159	1	1	0.0	-0.49999999999999994	136.96598839415668	0	0	0
160	1	1	0.0	0.0	137.83201379794113	0	0	0
161	1	1	0.0	-0.49999999999999994	138.69803920172558	0	0	0
162	1	1	0.0	0.0	139.56406460551003	0	0	0
163	1	1	0.0	-0.49999999999999994	140.43009000929447	0	0	0
164	1	1	0.0	0.0	141.29611541307892	0	0	0
165	1	1	0.0	-0.49999999999999994	142.16214081686337	0	0	0
166	1	1	0.0	0.0	143.02816622064782	0	0	0
167	1	1	0.0	-0.49999999999999994	143.89419162443227	0	0	0
168	1	1	0.0	0.0	144.76021702821672	0	0	0
169	1	1	0.0	-0.49999999999999994	145.62624243200116	0	0	0
170	1	1	0.0	0.0	146.4922678357856	0	0	0
171	1	1	0.0	-0.49999999999999994	147.35829323957006	0	0	0
172	1	1	0.0	0.0	148.2243186433545	0	0	0
173	1	1	0.0	-0.49999999999999994	149.09034404713896	0	0	0
174	1	1	0.0	0.0	149.9563694509234	0	0	0
175	1	1	0.0	-0.49999999999999994	150.82239485470785	0	0	0
176	1	1	0.0	0.0	151.6884202584923	0	0	0
177	1	1	0.0	-0.49999999999999994	152.55444566227675	0	0	0
178	1	1	0.0	0.0	153.4204710660612	0	0	0
179	1	1	0.0	-0.49999999999999994	154.28649646984564	0	0	0
180	1	1	0.0	0.0	155.1525218736301	0	0	0
181	1	1	0.0	-0.49999999999999994	156.01854727741454	0	0	0
182	1	1	0.0	0.0	156.884572681199	0	0	0
183	1	1	0.0	-0.49999999999999994	157.75059808498344	0	0	0
184	1	1	0.0	0.0	158.61662348876789	0	0	0
185	1	1	0.0	-0.49999999999999994	159.48264889255233	0	0	0
186	1	1	0.0	0.0	160.34867429633678	0	0	0
187	1	1	0.0	-0.49999999999999994	161.21469970012123	0	0	0
188	1	1	0.0	0.0	162.08072510390568	0	0	0
189	1	1	0.0	-0.49999999999999994	162.94675050769013	0	0	0
190	1	1	0.0	0.0	163.81277591147457	0	0	0
191	1	1	0.0	-0.49999999999999994	164.67880131525902	0	0	0
192	1	1	0.0	0.0	165.54482671904347	0	0	0
193	1	1	0.0	-0.49999999999999994	166.41085212282792	0	0	0
194	1	1	0.0	0.0	167.27687752661237	0	0	0
195	1	1	0.0	-0.49999999999999994	168.14290293039682	0	0	0
196	1	1	0.0	0.0	169.00892833418126	0	0	0
197	1	1	0.0	-0.49999999999999994	169.8749537379657	0	0	0
198	1	1	0.0	0.0	170.74097914175016	0	0	0
199	1	1	0.0	-0.49999999999999994	171.6070045455346	0	0	0
200	1	1	0.0	0.0	172.47302994931906	0	0	0
201	1	1	0.0	-0.49999999999999994	173.3390553531035	0	0	0
202	1	1	0.0	0.0	174.20508075688795	0	0	0
203	1	1	0.0	-0.49999999999999994	175.0711061606724	0	0	0
204	1	1	0.0	0.0	175.93713156445685	0	0	0
205	1	1	0.0	-0.49999999999999994	176.8031569682413	0	0	0
206	1	1	0.0	0.0	177.66918237202574	0	0	0
207	1	1	0.0	-0.49999999999999994	178.5352077758102	0	0	0
208	1	1	0.0	0.0	179.40123317959464	0	0	0
209	1	1	0.0	-0.49999999999999994	180.2672585833791	0	0	0
210	1	1	0.0	0.0	181.13328398716354	0	0	0
211	1	1	0.0	-0.49999999999999994	181.99930939094799	0	0	0
212	1	1	0.0	0.0	182.86533479473243	0	0	0
213	1	1	0.0	-0.49999999999999994	183.73136019851688	0	0	0
214	1	1	0.0	0.0	184.59738560230133	0	0	0
215	1	1	0.0	-0.49999999999999994	185.46341100608578	0	0	0
216	1	1	0.0	0.0	186.32943640987023	0	0	0
217	1	1	0.0	-0.49999999999999994	187.19546181365467	0	0	0
218	1	1	0.0	0.0	188.06148721743912	0	0	0
219	1	1	0.0	-0.49999999999999994	188.92751262122357	0	0	0
220	1	1	0.0	0.0	189.79353802500802	0	0	0
221	1	1	0.0	-0.49999999999999994	190.65956342879247	0	0	0
222	1	1	0.0	0.0	191.52558883257691	0	0	0
223	1	1	0.0	-0.49999999999999994	192.39161423636136	0	0	0
224	1	1	0.0	0.0	193.2576396401458	0	0	0
225	1	1	0.0	-0.49999999999999994	194.12366504393026	0	0	0
226	1	1	0.0	0.0	194.9896904477147	0	0	0
227	1	1	0.0	-0.49999999999999994	195.85571585149916	0	0	0
228	1	1	0.0	0.0	196.7217412552836	0	0	0
229	1	1	0.0	-0.49999999999999994	197.58776665906805	0	0	0
230	1	1	0.0	0.0	198.4537920628525	0	0	0
231	1	1	0.0	-0.49999999999999994	199.31981746663695	0	0	0
232	1	1	0.0	0.0	200.1858428704214	0	0	0
233	1	1	0.0	-0.49999999999999994	201.05186827420584	0	0	0
234	1	1	0.0	0.0	201.9178936779903	0	0	0
235	1	1	0.0	-0.49999999999999994	202.78391908177474	0	0	0
236	1	1	0.0	0.0	203.6499444855592	0	0	0
237	1	1	0.0	-0.49999999999999994	204.51596988934364	0	0	0
238	1	1	0.0	0.0	205.38199529312809	0	0	0
239	1	1	0.0	-0.49999999999999994	206.24802069691253	0	0	0
240	1	1	0.0	0.0	207.11404610069698	0	0	0
241	1	1	0.0	-0.49999999999999994	207.98007150448143	0	0	0
242	1	1	0.0	0.0	208.84609690826588	0	0	0
243	1	1	0.0	-0.49999999999999994	209.71212231205033	0	0	0
244	1	1	0.0	0.0	210.57814771583477	0	0	0
245	1	1	0.0	-0.49999999999999994	211.44417311961922	0	0	0
246	1	1	0.0	0.0	212.31019852340367	0	0	0
247	1	1	0.0	-0.49999999999999994	213.17622392718812	0	0	0
248	1	1	0.0	0.0	214.04224933097257	0	0	0
249	1	1	0.0	-0.49999999999999994	214.90827473475701	0	0	0
250	1	1	0.0	0.0	215.77430013854146	0	0	0
251	1	1	0.0	-0.49999999999999994	216.6403255423259	0	0	0
252	1	1	0.0	0.0	217.50635094611036	0	0	0
253	1	1	0.0	-0.49999999999999994	218.3723763498948	0	0	0
254	1	1	0.0	0.0	219.23840175367926	0	0	0
255	1	1	0.0	-0.49999999999999994	220.1044271574637	0	0	0
256	1	1	0.0	0.0	220.97045256124815	0	0	0
257	1	1	0.0	-0.49999999999999994	221.8364779650326	0	0	0
258	1	1	0.0	0.0	222.70250336881705	0	0	0
259	1	1	0.0	-0.49999999999999994	223.5685287726015	0	0	0
260	1	1	0.0	0.0	224.43455417638594	0	0	0
261	1	1	0.0	-0.49999999999999994	225.3005795801704	0	0	0
262	1	1	0.0	0.0	226.16660498395484	0	0	0
263	1	1	0.0	-0.49999999999999994	227.0326303877393	0	0	0
264	1	1	0.0	0.0	227.89865579152374	0	0	0
265	1	1	0.0	-0.49999999999999994	228.76468119530819	0	0	0
266	1	1	0.0	0.0	229.63070659909263	0	0	0
267	1	1	0.0	-0.49999999999999994	230.49673200287708	0	0	0
268	1	1	0.0	0.0	231.36275740666153	0	0	0
269	1	1	0.0	-0.49999999999999994	232.22878281044598	0	0	0
270	1	1	0.0	0.0	233.09480821423043	0	0	0
271	1	1	0.0	-0.49999999999999994	233.96083361801487	0	0	0
272	1	1	0.0	0.0	234.82685902179932	0	0	0
273	1	1	0.0	-0.49999999999999994	235.69288442558377	0	0	0
274	1	1	0.0	0.0	236.55890982936822	0	0	0
275	1	1	0.0	-0.49999999999999994	237.42493523315267	0	0	0
276	1	1	0.0	0.0	238.29096063693711	0	0	0
277	1	1	0.0	-0.49999999999999994	239.15698604072156	0	0	0
278	1	1	0.0	0.0	240.023011444506	0	0	0
279	1	1	0.0	-0.49999999999999994	240.88903684829046	0	0	0
280	1	1	0.0	0.0	241.7550622520749	0	0	0
281	1	1	0.0	-0.49999999999999994	242.62108765585936	0	0	0
282	1	1	0.0	0.0	243.4871130596438	0	0	0
283	1	1	0.0	-0.49999999999999994	244.35313846342825	0	0	0
284	1	1	0.0	0.0	245.2191638672127	0	0	0
285	1	1	0.0	-0.49999999999999994	246.08518927099715	0	0	0
286	1	1	0.0	0.0	246.9512146747816	0	0	0
287	1	1	0.0	-0.49999999999999994	247.81724007856604	0	0	0
288	1	1	0.0	0.0	248.6832654823505	0	0	0
289	1	1	0.0	-0.49999999999999994	249.54929088613494	0	0	0
290	1	1	0.0	0.0	250.4153162899194	0	0	0
291	1	1	0.0	-0.49999999999999994	251.28134169370384	0	0	0
292	1	1	0.0	0.0	252.14736709748829	0	0	0
293	1	1	0.0	-0.49999999999999994	253.01339250127273	0	0	0
294	1	1	0.0	0.0	253.87941790505718	0	0	0
295	1	1	0.0	-0.49999999999999994	254.74544330884163	0	0	0
296	1	1	0.0	0.0	255.61146871262608	0	0	0
297	1	1	0.0	-0.49999999999999994	256.4774941164105	0	0	0
298	1	1	0.0	0.0	257.34351952019495	0	0	0
299	1	1	0.0	-0.49999999999999994	258.20954492397937	0	0	0
300	1	1	0.0	0.0	259.0755703277638	0	0	0
301	1	1	0.0	-0.49999999999999994	259.9415957315482	0	0	0
302	1	1	-0.8184382335749153	-0.26187395054971974	260.4645248303713	0	0	0
303	1	1	-1.6368764671498441	-0.3171152918344996	261.0364577390554	0	0	0
304	1	1	-2.455314700724773	0.15057246570383148	261.37026459828917	0	0	0
305	1	1	-3.2737529342997016	0.09533112441905159	261.94219750697323	0	0	0
306	1	1	-4.09219116787463	0.5630188819573827	262.276004366207	0	0	0
307	1	1	-4.910629401449559	0.5077775406726028	262.8479372748911	0	0	0
308	1	1	-5.729067635024488	0.975465298210934	263.18174413412487	0	0	0
309	1	1	-6.5475058685994165	0.9202239569261541	263.75367704280893	0	0	0
310	1	1	-7.365944102174345	1.3879117144644852	264.0874839020427	0	0	0
311	1	1	-8.184382335749275	1.3326703731797054	264.6594168107268	0	0	0
312	1	1	-9.002820569324204	1.8003581307180365	264.99322366996057	0	0	0
313	1	1	-9.821258802899132	1.7451167894332567	265.56515657864463	0	0	0
314	1	1	-10.639697036474061	2.212804546971588	265.8989634378784	0	0	0
315	1	1	-11.45813527004899	2.1575632056868077	266.4708963465625	0	0	0
316	1	1	-12.276573503623919	2.6252509632251386	266.8047032057963	0	0	0
317	1	1	-13.095011737198847	2.5700096219403585	267.37663611448033	0	0	0
318	1	1	-13.913449970773776	3.0376973794786895	267.7104429737141	0	0	0
319	1	1	-14.731888204348705	2.9824560381939094	268.2823758823982	0	0	0
320	1	1	-15.550326437923633	3.4501437957322403	268.616182741632	0	0	0
321	1	1	-16.368764671498564	3.39490245444746	269.18811565031604	0	0	0
322	1	1	-17.187202905073494	3.862590211985791	269.5219225095498	0	0	0
323	1	1	-18.005641138648425	3.807348870701011	270.0938554182339	0	0	0
324	1	1	-18.824079372223355	4.275036628239342	270.4276622774677	0	0	0
325	1	1	-19.642517605798286	4.219795286954563	270.99959518615174	0	0	0
326	1	1	-20.460955839373216	4.687483044492894	271.3334020453855	0	0	0
327	1	1	-21.279394072948147	4.6322417032081145	271.9053349540696	0	0	0
328	1	1	-22.097832306523078	5.099929460746446	272.2391418133034	0	0	0
329	1	1	-22.916270540098008	5.044688119461666	272.81107472198744	0	0	0
330	1	1	-23.73470877367294	5.5123758769999975	273.1448815812212	0	0	0
331	1	1	-24.55314700724787	5.457134535715218	273.7168144899053	0	0	0
332	1	1	-25.3715852408228	5.924822293253549	274.0506213491391	0	0	0
333	1	1	-26.19002347439773	5.86958095196877	274.62255425782314	0	0	0
334	1	1	-27.00846170797266	6.337268709507101	274.95636111705693	0	0	0
335	1	1	-27.82689994154759	6.282027368222321	275.528294025741	0	0	0
336	1	1	-28.64533817512252	6.749715125760653	275.8621008849748	0	0	0
337	1	1	-29.463776408697452	6.694473784475873	276.43403379365884	0	0	0
338	1	1	-30.282214642272383	7.162161542014204	276.76784065289263	0	0	0
339	1	1	-31.100652875847313	7.106920200729425	277.3397735615767	0	0	0
340	1	1	-31.919091109422244	7.574607958267756	277.6735804208105	0	0	0
341	1	1	-32.73752934299717	7.5193666169829765	278.24551332949454	0	0	0
342	1	1	-33.5559675765721	7.987054374521308	278.57932018872833	0	0	0
343	1	1	-34.37440581014703	7.931813033236528	279.1512530974124	0	0	0
344	1	1	-35.19284404372196	8.399500790774859	279.4850599566462	0	0	0
345	1	1	-36.01128227729689	8.344259449490078	280.05699286533024	0	0	0
346	1	1	-36.82972051087182	8.811947207028409	280.39079972456403	0	0	0
347	1	1	-37.648158744446754	8.756705865743628	280.9627326332481	0	0	0
348	1	1	-38.466596978021684	9.224393623281959	281.2965394924819	0	0	0
349	1	1	-39.285035211596615	9.169152281997178	281.86847240116595	0	0	0
350	1	1	-40.103473445171545	9.636840039535508	282.20227926039973	0	0	0
351	1	1	-40.921911678746476	9.581598698250728	282.7742121690838	0	0	0
352	1	1	-41.740349912321406	10.049286455789058	283.1080190283176	0	0	0
353	1	1	-42.55878814589634	9.994045114504278	283.67995193700165	0	0	0
354	1	1	-43.37722637947127	10.461732872042608	284.01375879623544	0	0	0
355	1	1	-44.1956646130462	10.406491530757828	284.5856917049195	0	0	0
356	1	1	-45.01410284662113	10.874179288296158	284.9194985641533	0	0	0
357	1	1	-45.83254108019606	10.818937947011378	285.49143147283735	0	0	0
358	1	1	-46.65097931377099	11.286625704549708	285.82523833207114	0	0	0
359	1	1	-47.46941754734592	11.231384363264928	286.3971712407552	0	0	0
360	1	1	-48.28785578092085	11.699072120803258	286.730978099989	0	0	0
361	1	1	-49.10629401449578	11.643830779518478	287.30291100867305	0	0	0
362	1	1	-49.92473224807071	12.111518537056808	287.63671786790684	0	0	0
363	1	1	-50.74317048164564	12.056277195772028	288.2086507765909	0	0	0
364	1	1	-51.56160871522057	12.523964953310358	288.5424576358247	0	0	0
365	1	1	-52.3800469487955	12.468723612025578	289.11439054450875	0	0	0
366	1	1	-53.19848518237043	12.936411369563908	289.44819740374254	0	0	0
367	1	1	-54.016923415945364	12.881170028279127	290.0201303124266	0	0	0
368	1	1	-54.835361649520294	13.348857785817458	290.3539371716604	0	0	0
369	1	1	-55.653799883095225	13.293616444532677	290.92587008034445	0	0	0
370	1	1	-56.472238116670155	13.761304202071008	291.25967693957824	0	0	0
371	1	1	-57.290676350245086	13.706062860786227	291.8316098482623	0	0	0
372	1	1	-58.109114583820016	14.173750618324558	292.1654167074961	0	0	0
373	1	1	-58.92755281739495	14.118509277039777	292.73734961618015	0	0	0
374	1	1	-59.74599105096988	14.586197034578108	293.07115647541394	0	0	0
375	1	1	-60.56442928454481	14.530955693293327	293.643089384098	0	0	0
376	1	1	-61.38286751811974	14.998643450831658	293.9768962433318	0	0	0
377	1	1	-62.20130575169467	14.943402109546877	294.54882915201586	0	0	0
378	1	1	-63.0197439852696	15.411089867085208	294.88263601124964	0	0	0
379	1	1	-63.83818221884453	15.355848525800427	295.4545689199337	0	0	0
380	1	1	-64.65662045241946	15.823536283338758	295.7883757791675	0	0	0
381	1	1	-65.47505868599438	15.768294942053977	296.36030868785156	0	0	0
382	1	1	-66.29349691956931	16.23598269959231	296.69411554708535	0	0	0
383	1	1	-67.11193515314423	16.18074135830753	297.2660484557694	0	0	0
384	1	1	-67.93037338671915	16.64842911584586	297.5998553150032	0	0	0
385	1	1	-68.74881162029408	16.59318777456108	298.17178822368726	0	0	0
386	1	1	-69.567249853869	17.060875532099413	298.50559508292105	0	0	0
387	1	1	-70.38568808744392	17.005634190814632	299.0775279916051	0	0	0
388	1	1	-71.20412632101885	17.473321948352964	299.4113348508389	0	0	0
389	1	1	-72.02256455459377	17.418080607068184	299.98326775952296	0	0	0
390	1	1	-72.8410027881687	17.885768364606516	300.31707461875675	0	0	0
391	1	1	-73.65944102174362	17.830527023321736	300.8890075274408	0	0	0
392	1	1	-74.47787925531854	18.298214780860068	301.2228143866746	0	0	0
393	1	1	-75.29631748889346	18.242973439575287	301.79474729535866	0	0	0
394	1	1	-76.11475572246839	18.71066119711362	302.12855415459245	0	0	0
395	1	1	-76.93319395604331	18.65541985582884	302.7004870632765	0	0	0
396	1	1	-77.75163218961823	19.12310761336717	303.0342939225103	0	0	0
397	1	1	-78.57007042319316	19.06786627208239	303.60622683119436	0	0	0
398	1	1	-79.38850865676808	19.535554029620723	303.94003369042815	0	0	0
399	1	1	-80.206946890343	19.480312688335943	304.5119665991122	0	0	0
400	1	1	-81.02538512391793	19.948000445874275	304.845773458346	0	0	0
401	1	1	-81.84382335749285	19.892759104589494	305.41770636703006	0	0	0
402	1	1	-82.66226159106778	20.360446862127827	305.75151322626385	0	0	0
403	1	1	-83.4806998246427	20.305205520843046	306.3234461349479	0	0	0
404	1	1	-84.29913805821762	20.77289327838138	306.6572529941817	0	0	0
405	1	1	-85.11757629179255	20.717651937096598	307.22918590286577	0	0	0
406	1	1	-85.93601452536747	21.18533969463493	307.56299276209955	0	0	0
407	1	1	-86.75445275894239	21.13009835335015	308.1349256707836	0	0	0
408	1	1	-87.57289099251732	21.59778611088848	308.4687325300174	0	0	0
409	1	1	-88.39132922609224	21.5425447696037	309.04066543870147	0	0	0
410	1	1	-89.20976745966716	22.010232527142033	309.37447229793526	0	0	0
411	1	1	-90.02820569324209	21.954991185857253	309.9464052066193	0	0	0
412	1	1	-90.84664392681701	22.422678943395585	310.2802120658531	0	0	0
413	1	1	-91.66508216039193	22.367437602110805	310.85214497453717	0	0	0
414	1	1	-92.48352039396686	22.835125359649137	311.18595183377096	0	0	0
415	1	1	-93.30195862754178	22.779884018364356	311.757884742455	0	0	0
416	1	1	-94.1203968611167	23.24757177590269	312.0916916016888	0	0	0
417	1	1	-94.93883509469163	23.192330434617908	312.66362451037287	0	0	0
418	1	1	-95.75727332826655	23.66001819215624	312.99743136960666	0	0	0
419	1	1	-96.57571156184147	23.60477685087146	313.5693642782907	0	0	0
420	1	1	-97.3941497954164	24.072464608409792	313.9031711375245	0	0	0
421	1	1	-98.21258802899132	24.01722326712501	314.47510404620857	0	0	0
422	1	1	-99.03102626256624	24.484911024663344	314.80891090544236	0	0	0
423	1	1	-99.84946449614117	24.429669683378563	315.3808438141264	0	0	0
424	1	1	-100.66790272971609	24.897357440916895	315.7146506733602	0	0	0
425	1	1	-101.48634096329101	24.842116099632115	316.2865835820443	0	0	0
426	1	1	-102.30477919686594	25.309803857170447	316.62039044127806	0	0	0
427	1	1	-103.12321743044086	25.254562515885667	317.1923233499621	0	0	0
428	1	1	-103.94165566401578	25.722250273424	317.5261302091959	0	0	0
429	1	1	-104.7600938975907	25.66700893213922	318.09806311788	0	0	0
430	1	1	-105.57853213116563	26.13469668967755	318.43186997711376	0	0	0
431	1	1	-106.39697036474055	26.07945534839277	319.0038028857978	0	0	0
432	1	1	-107.21540859831548	26.547143105931102	319.3376097450316	0	0	0
433	1	1	-108.0338468318904	26.49190176464632	319.9095426537157	0	0	0
434	1	1	-108.85228506546532	26.959589522184654	320.24334951294946	0	0	0
435	1	1	-109.67072329904025	26.904348180899873	320.8152824216335	0	0	0
436	1	1	-110.48916153261517	27.372035938438206	321.1490892808673	0	0	0
437	1	1	-111.3075997661901	27.316794597153425	321.7210221895514	0	0	0
438	1	1	-112.12603799976502	27.784482354691757	322.05482904878517	0	0	0
439	1	1	-112.94447623333994	27.729241013406977	322.6267619574692	0	0	0
440	1	1	-113.76291446691486	28.19692877094531	322.960568816703	0	0	0
441	1	1	-114.58135270048979	28.14168742966053	323.5325017253871	0	0	0
442	1	1	-115.39979093406471	28.60937518719886	323.86630858462087	0	0	0
443	1	1	-116.21822916763963	28.55413384591408	324.43824149330493	0	0	0
444	1	1	-117.03666740121456	29.021821603452413	324.7720483525387	0	0	0
445	1	1	-117.85510563478948	28.966580262167632	325.3439812612228	0	0	0
446	1	1	-118.6735438683644	29.434268019705964	325.67778812045657	0	0	0
447	1	1	-119.49198210193933	29.379026678421184	326.24972102914063	0	0	0
448	1	1	-120.31042033551425	29.846714435959516	326.5835278883744	0	0	0
449	1	1	-121.12885856908918	29.791473094674735	327.1554607970585	0	0	0
450	1	1	-121.9472968026641	30.259160852213068	327.48926765629227	0	0	0
451	1	1	-122.76573503623902	30.203919510928287	328.06120056497633	0	0	0
452	1	1	-123.58417326981395	30.67160726846662	328.3950074242101	0	0	0
453	1	1	-124.40261150338887	30.61636592718184	328.9669403328942	0	0	0
454	1	1	-125.22104973696379	31.08405368472017	329.300747192128	0	0	0
455	1	1	-126.03948797053872	31.02881234343539	329.87268010081203	0	0	0
456	1	1	-126.85792620411364	31.496500100973723	330.2064869600458	0	0	0
457	1	1	-127.67636443768856	31.441258759688942	330.7784198687299	0	0	0
458	1	1	-128.4948026712635	31.908946517227275	331.1122267279637	0	0	0
459	1	1	-129.31324090483844	31.853705175942494	331.68415963664773	0	0	0
460	1	1	-130.13167913841338	32.32139293348082	332.0179664958815	0	0	0
461	1	1	-130.9501173719883	32.266151592196046	332.5898994045656	0	0	0
462	1	1	-131.76855560556325	32.733839349734374	332.9237062637994	0	0	0
463	1	1	-132.5869938391382	32.6785980084496	333.49563917248344	0	0	0
464	1	1	-133.40543207271313	33.146285765987926	333.8294460317172	0	0	0
465	1	1	-134.22387030628806	33.09104442470315	334.4013789404013	0	0	0
466	1	1	-135.042308539863	33.55873218224148	334.7351857996351	0	0	0
467	1	1	-135.86074677343794	33.5034908409567	335.30711870831914	0	0	0
468	1	1	-136.67918500701288	33.97117859849503	335.6409255675529	0	0	0
469	1	1	-137.4976232405878	33.91593725721025	336.212858476237	0	0	0
470	1	1	-138.31606147416275	34.38362501474858	336.5466653354708	0	0	0
471	1	1	-139.1344997077377	34.328383673463804	337.11859824415484	0	0	0
472	1	1	-139.95293794131263	34.79607143100213	337.4524051033886	0	0	0
473	1	1	-140.77137617488756	34.740830089717356	338.0243380120727	0	0	0
474	1	1	-141.5898144084625	35.208517847255685	338.3581448713065	0	0	0
475	1	1	-142.40825264203744	35.15327650597091	338.93007777999054	0	0	0
476	1	1	-143.22669087561238	35.62096426350924	339.26388463922433	0	0	0
477	1	1	-144.04512910918731	35.56572292222446	339.8358175479084	0	0	0
478	1	1	-144.86356734276225	36.03341067976279	340.1696244071422	0	0	0
479	1	1	-145.6820055763372	35.97816933847801	340.74155731582624	0	0	0
480	1	1	-146.50044380991213	36.44585709601634	341.07536417506003	0	0	0
481	1	1	-147.31888204348706	36.39061575473156	341.6472970837441	0	0	0
482	1	1	-148.137320277062	36.85830351226989	341.9811039429779	0	0	0
483	1	1	-148.95575851063694	36.803062170985115	342.55303685166194	0	0	0
484	1	1	-149.77419674421188	37.27074992852344	342.88684371089573	0	0	0
485	1	1	-150.59263497778682	37.215508587238666	343.4587766195798	0	0	0
486	1	1	-151.41107321136175	37.683196344776995	343.7925834788136	0	0	0
487	1	1	-152.2295114449367	37.62795500349222	344.36451638749764	0	0	0
488	1	1	-153.04794967851163	38.09564276103055	344.69832324673143	0	0	0
489	1	1	-153.86638791208657	38.04040141974577	345.2702561554155	0	0	0
490	1	1	-154.6848261456615	38.5080891772841	345.6040630146493	0	0	0
491	1	1	-155.50326437923644	38.45284783599932	346.17599592333335	0	0	0
492	1	1	-156.32170261281138	38.92053559353765	346.50980278256714	0	0	0
493	1	1	-157.14014084638632	38.86529425225287	347.0817356912512	0	0	0
494	1	1	-157.95857907996125	39.3329820097912	347.415542550485	0	0	0
495	1	1	-158.7770173135362	39.277740668506425	347.98747545916905	0	0	0
496	1	1	-159.59545554711113	39.745428426044754	348.32128231840284	0	0	0
497	1	1	-160.41389378068607	39.69018708475998	348.8932152270869	0	0	0
498	1	1	-161.232332014261	40.157874842298305	349.2270220863207	0	0	0
499	1	1	-162.05077024783594	40.10263350101353	349.79895499500475	0	0	0
500	1	1	-162.86920848141088	40.57032125855186	350.13276185423854	0	0	0
501	1	1	-163.68764671498582	40.51507991726708	350.7046947629226	0	0	0
502	1	1	-164.50608494856075	40.98276767480541	351.0385016221564	0	0	0
503	1	1	-165.3245231821357	40.92752633352063	351.61043453084045	0	0	0
504	1	1	-166.14296141571063	41.39521409105896	351.94424139007424	0	0	0
505	1	1	-166.96139964928557	41.339972749774184	352.5161742987583	0	0	0
506	1	1	-167.7798378828605	41.80766050731251	352.8499811579921	0	0	0
507	1	1	-168.59827611643544	41.752419166027735	353.42191406667615	0	0	0
508	1	1	-169.41671435001038	42.220106923566064	353.75572092590994	0	0	0
509	1	1	-170.23515258358532	42.16486558228129	354.327653834594	0	0	0
510	1	1	-171.05359081716026	42.632553339819616	354.6614606938278	0	0	0
511	1	1	-171.8720290507352	42.57731199853484	355.23339360251185	0	0	0
512	1	1	-172.69046728431013	43.04499975607317	355.56720046174564	0	0	0
513	1	1	-173.50890551788507	42.98975841478839	356.1391333704297	0	0	0
514	1	1	-174.32734375146	43.45744617232672	356.4729402296635	0	0	0
515	1	1	-175.14578198503494	43.40220483104194	357.04487313834755	0	0	0
516	1	1	-175.96422021860988	43.86989258858027	357.37867999758134	0	0	0
517	1	1	-176.78265845218482	43.814651247295494	357.9506129062654	0	0	0