ITEM: TIMESTEP
0
ITEM: NUMBER OF ATOMS
301
ITEM: BOX BOUNDS pp pp pp
-1.0000000000000000e+03 1.0000000000000000e+03
-1.0000000000000000e+03 1.0000000000000000e+03
-1.0000000000000000e+03 1.0000000000000000e+03
ITEM: ATOMS id x y z ix iy iz
1 0.00000 0.00000 0.00000 0 0 0
2 0.00000 0.00000 1.00000 0 0 0
3 0.00000 -0.50000 1.86603 0 0 0
4 0.00000 0.00000 2.73205 0 0 0
5 0.00000 -0.50000 3.59808 0 0 0
6 0.00000 0.00000 4.46410 0 0 0
7 0.00000 -0.50000 5.33013 0 0 0
8 0.00000 0.00000 6.19615 0 0 0
9 0.00000 -0.50000 7.06218 0 0 0
10 0.00000 0.00000 7.92820 0 0 0
11 0.00000 -0.50000 8.79423 0 0 0
12 0.00000 0.00000 9.66025 0 0 0
13 0.00000 -0.50000 10.52628 0 0 0
14 0.00000 0.00000 11.39230 0 0 0
15 0.00000 -0.50000 12.25833 0 0 0
16 0.00000 0.00000 13.12436 0 0 0
17 0.00000 -0.50000 13.99038 0 0 0
18 0.00000 0.00000 14.85641 0 0 0
19 0.00000 -0.50000 15.72243 0 0 0
20 0.00000 0.00000 16.58846 0 0 0
21 0.00000 -0.50000 17.45448 0 0 0
22 0.00000 0.00000 18.32051 0 0 0
23 0.00000 -0.50000 19.18653 0 0 0
24 0.00000 0.00000 20.05256 0 0 0
25 0.00000 -0.50000 20.91858 0 0 0
26 0.00000 0.00000 21.78461 0 0 0
27 0.00000 -0.50000 22.65064 0 0 0
28 0.00000 0.00000 23.51666 0 0 0
29 0.00000 -0.50000 24.38269 0 0 0
30 0.00000 0.00000 25.24871 0 0 0
31 0.00000 -0.50000 26.11474 0 0 0
32 0.00000 0.00000 26.98076 0 0 0
33 0.00000 -0.50000 27.84679 0 0 0
34 0.00000 0.00000 28.71281 0 0 0
35 0.00000 -0.50000 29.57884 0 0 0
36 0.00000 0.00000 30.44486 0 0 0
37 0.00000 -0.50000 31.31089 0 0 0
38 0.00000 0.00000 32.17691 0 0 0
39 0.00000 -0.50000 33.04294 0 0 0
40 0.00000 0.00000 33.90897 0 0 0
41 0.00000 -0.50000 34.77499 0 0 0
42 0.00000 0.00000 35.64102 0 0 0
43 0.00000 -0.50000 36.50704 0 0 0
44 0.00000 0.00000 37.37307 0 0 0
45 0.00000 -0.50000 38.23909 0 0 0
46 0.00000 0.00000 39.10512 0 0 0
47 0.00000 -0.50000 39.97114 0 0 0
48 0.00000 0.00000 40.83717 0 0 0
49 0.00000 -0.50000 41.70319 0 0 0
50 0.00000 0.00000 42.56922 0 0 0
51 0.00000 -0.50000 43.43524 0 0 0
52 0.00000 0.00000 44.30127 0 0 0
53 0.00000 -0.50000 45.16730 0 0 0
54 0.00000 0.00000 46.03332 0 0 0
55 0.00000 -0.50000 46.89935 0 0 0
56 0.00000 0.00000 47.76537 0 0 0
57 0.00000 -0.50000 48.63140 0 0 0
58 0.00000 0.00000 49.49742 0 0 0
59 0.00000 -0.50000 50.36345 0 0 0
60 0.00000 0.00000 51.22947 0 0 0
61 0.00000 -0.50000 52.09550 0 0 0
62 0.00000 0.00000 52.96152 0 0 0
63 0.00000 -0.50000 53.82755 0 0 0
64 0.00000 0.00000 54.69358 0 0 0
65 0.00000 -0.50000 55.55960 0 0 0
66 0.00000 0.00000 56.42563 0 0 0
67 0.00000 -0.50000 57.29165 0 0 0
68 0.00000 0.00000 58.15768 0 0 0
69 0.00000 -0.50000 59.02370 0 0 0
70 0.00000 0.00000 59.88973 0 0 0
71 0.00000 -0.50000 60.75575 0 0 0
72 0.00000 0.00000 61.62178 0 0 0
73 0.00000 -0.50000 62.48780 0 0 0
74 0.00000 0.00000 63.35383 0 0 0
75 0.00000 -0.50000 64.21985 0 0 0
76 0.00000 0.00000 65.08588 0 0 0
77 -0.18990 0.96652 64.91331 0 0 0
78 -0.37981 1.88983 65.24711 0 0 0
79 -0.56971 2.64057 64.61440 0 0 0
80 -0.75962 3.56389 64.94821 0 0 0
81 -0.94952 4.31463 64.31550 0 0 0
82 -1.13943 5.23794 64.64931 0 0 0
83 -1.32933 5.98869 64.01660 0 0 0
84 -1.51924 6.91200 64.35040 0 0 0
85 -1.70914 7.66274 63.71769 0 0 0
86 -1.89905 8.58606 64.05150 0 0 0
87 -2.08895 9.33680 63.41879 0 0 0
88 -2.27886 10.26011 63.75260 0 0 0
89 -2.46876 11.01086 63.11989 0 0 0
90 -2.65866 11.93417 63.45369 0 0 0
91 -2.84857 12.68491 62.82098 0 0 0
92 -3.03847 13.60823 63.15479 0 0 0
93 -3.22838 14.35897 62.52208 0 0 0
94 -3.41828 15.28228 62.85589 0 0 0
95 -3.60819 16.03303 62.22318 0 0 0
96 -3.79809 16.95634 62.55698 0 0 0
97 -3.98800 17.70708 61.92427 0 0 0
98 -4.17790 18.63040 62.25808 0 0 0
99 -4.36781 19.38114 61.62537 0 0 0
100 -4.55771 20.30445 61.95918 0 0 0
101 -4.74762 21.05520 61.32647 0 0 0
102 -4.93752 21.97851 61.66028 0 0 0
103 -5.12742 22.72925 61.02756 0 0 0
104 -5.31733 23.65257 61.36137 0 0 0
105 -5.50723 24.40331 60.72866 0 0 0
106 -5.69714 25.32662 61.06247 0 0 0
107 -5.88704 26.07737 60.42976 0 0 0
108 -6.07695 27.00068 60.76357 0 0 0
109 -6.26685 27.75142 60.13085 0 0 0
110 -6.45676 28.67474 60.46466 0 0 0
111 -6.64666 29.42548 59.83195 0 0 0
112 -6.83657 30.34879 60.16576 0 0 0
113 -7.02647 31.09954 59.53305 0 0 0
114 -7.21637 32.02285 59.86686 0 0 0
115 -7.40628 32.77359 59.23414 0 0 0
116 -7.59618 33.69691 59.56795 0 0 0
117 -7.78609 34.44765 58.93524 0 0 0
118 -7.97599 35.37096 59.26905 0 0 0
119 -8.16590 36.12171 58.63634 0 0 0
120 -8.35580 37.04502 58.97015 0 0 0
121 -8.54571 37.79576 58.33744 0 0 0
122 -8.73561 38.71908 58.67124 0 0 0
123 -8.92552 39.46982 58.03853 0 0 0
124 -9.11542 40.39313 58.37234 0 0 0
125 -9.30533 41.14388 57.73963 0 0 0
126 -9.49523 42.06719 58.07344 0 0 0
127 -9.68513 42.81793 57.44073 0 0 0
128 -9.87504 43.74125 57.77453 0 0 0
129 -10.06494 44.49199 57.14182 0 0 0
130 -10.25485 45.41530 57.47563 0 0 0
131 -10.44475 46.16605 56.84292 0 0 0
132 -10.63466 47.08936 57.17673 0 0 0
133 -10.82456 47.84010 56.54402 0 0 0
134 -11.01447 48.76342 56.87782 0 0 0
135 -11.20437 49.51416 56.24511 0 0 0
136 -11.39428 50.43747 56.57892 0 0 0
137 -11.58418 51.18822 55.94621 0 0 0
138 -11.77409 52.11153 56.28002 0 0 0
139 -11.96399 52.86227 55.64731 0 0 0
140 -12.15389 53.78559 55.98111 0 0 0
141 -12.34380 54.53633 55.34840 0 0 0
142 -12.53370 55.45964 55.68221 0 0 0
143 -12.72361 56.21039 55.04950 0 0 0
144 -12.91351 57.13370 55.38331 0 0 0
145 -13.10342 57.88444 54.75060 0 0 0
146 -13.29332 58.80776 55.08440 0 0 0
147 -13.48323 59.55850 54.45169 0 0 0
148 -13.67313 60.48181 54.78550 0 0 0
149 -13.86304 61.23255 54.15279 0 0 0
150 -14.05294 62.15587 54.48660 0 0 0
151 -14.24285 62.90661 53.85389 0 0 0
152 0.89457 -0.09047 65.52356 0 0 0
153 1.78913 -0.38767 65.85737 0 0 0
154 2.68370 -0.24718 66.28165 0 0 0
155 3.57826 -0.54438 66.61546 0 0 0
156 4.47283 -0.40389 67.03974 0 0 0
157 5.36740 -0.70108 67.37355 0 0 0
158 6.26196 -0.56060 67.79783 0 0 0
159 7.15653 -0.85779 68.13164 0 0 0
160 8.05109 -0.71730 68.55592 0 0 0
161 8.94566 -1.01450 68.88972 0 0 0
162 9.84022 -0.87401 69.31401 0 0 0
163 10.73479 -1.17121 69.64781 0 0 0
164 11.62936 -1.03072 70.07209 0 0 0
165 12.52392 -1.32791 70.40590 0 0 0
166 13.41849 -1.18743 70.83018 0 0 0
167 14.31305 -1.48462 71.16399 0 0 0
168 15.20762 -1.34413 71.58827 0 0 0
169 16.10219 -1.64133 71.92208 0 0 0
170 16.99675 -1.50084 72.34636 0 0 0
171 17.89132 -1.79803 72.68017 0 0 0
172 18.78588 -1.65755 73.10445 0 0 0
173 19.68045 -1.95474 73.43826 0 0 0
174 20.57502 -1.81425 73.86254 0 0 0
175 21.46958 -2.11145 74.19634 0 0 0
176 22.36415 -1.97096 74.62063 0 0 0
177 23.25871 -2.26816 74.95443 0 0 0
178 24.15328 -2.12767 75.37871 0 0 0
179 25.04785 -2.42486 75.71252 0 0 0
180 25.94241 -2.28438 76.13680 0 0 0
181 26.83698 -2.58157 76.47061 0 0 0
182 27.73154 -2.44108 76.89489 0 0 0
183 28.62611 -2.73828 77.22870 0 0 0
184 29.52067 -2.59779 77.65298 0 0 0
185 30.41524 -2.89498 77.98679 0 0 0
186 31.30981 -2.75450 78.41107 0 0 0
187 32.20437 -3.05169 78.74488 0 0 0
188 33.09894 -2.91120 79.16916 0 0 0
189 33.99350 -3.20840 79.50296 0 0 0
190 34.88807 -3.06791 79.92725 0 0 0
191 35.78264 -3.36511 80.26105 0 0 0
192 36.67720 -3.22462 80.68534 0 0 0
193 37.57177 -3.52181 81.01914 0 0 0
194 38.46633 -3.38133 81.44342 0 0 0
195 39.36090 -3.67852 81.77723 0 0 0
196 40.25547 -3.53803 82.20151 0 0 0
197 41.15003 -3.83523 82.53532 0 0 0
198 42.04460 -3.69474 82.95960 0 0 0
199 42.93916 -3.99193 83.29341 0 0 0
200 43.83373 -3.85145 83.71769 0 0 0
201 44.72830 -4.14864 84.05150 0 0 0
202 45.62286 -4.00815 84.47578 0 0 0
203 46.51743 -4.30535 84.80959 0 0 0
204 47.41199 -4.16486 85.23387 0 0 0
205 48.30656 -4.46206 85.56767 0 0 0
206 49.20112 -4.32157 85.99196 0 0 0
207 50.09569 -4.61876 86.32576 0 0 0
208 50.99026 -4.47828 86.75004 0 0 0
209 51.88482 -4.77547 87.08385 0 0 0
210 52.77939 -4.63498 87.50813 0 0 0
211 53.67395 -4.93218 87.84194 0 0 0
212 54.56852 -4.79169 88.26622 0 0 0
213 55.46309 -5.08888 88.60003 0 0 0
214 56.35765 -4.94840 89.02431 0 0 0
215 57.25222 -5.24559 89.35812 0 0 0
216 58.14678 -5.10510 89.78240 0 0 0
217 59.04135 -5.40230 90.11621 0 0 0
218 59.93592 -5.26181 90.54049 0 0 0
219 60.83048 -5.55901 90.87429 0 0 0
220 61.72505 -5.41852 91.29858 0 0 0
221 62.61961 -5.71571 91.63238 0 0 0
222 63.51418 -5.57523 92.05666 0 0 0
223 64.40875 -5.87242 92.39047 0 0 0
224 65.30331 -5.73193 92.81475 0 0 0
225 66.19788 -6.02913 93.14856 0 0 0
226 67.09244 -5.88864 93.57284 0 0 0
227 -0.70466 -0.37533 65.68802 0 0 0
228 -1.40932 -1.00145 66.02183 0 0 0
229 -2.11398 -1.02543 66.73097 0 0 0
230 -2.81865 -1.65154 67.06478 0 0 0
231 -3.52331 -1.67552 67.77392 0 0 0
232 -4.22797 -2.30164 68.10772 0 0 0
233 -4.93263 -2.32561 68.81686 0 0 0
234 -5.63729 -2.95173 69.15067 0 0 0
235 -6.34195 -2.97571 69.85981 0 0 0
236 -7.04661 -3.60183 70.19361 0 0 0
237 -7.75127 -3.62580 70.90275 0 0 0
238 -8.45594 -4.25192 71.23656 0 0 0
239 -9.16060 -4.27589 71.94570 0 0 0
240 -9.86526 -4.90201 72.27950 0 0 0
241 -10.56992 -4.92599 72.98864 0 0 0
242 -11.27458 -5.55211 73.32245 0 0 0
243 -11.97924 -5.57608 74.03159 0 0 0
244 -12.68390 -6.20220 74.36540 0 0 0
245 -13.38856 -6.22618 75.07453 0 0 0
246 -14.09323 -6.85230 75.40834 0 0 0
247 -14.79789 -6.87627 76.11748 0 0 0
248 -15.50255 -7.50239 76.45129 0 0 0
249 -16.20721 -7.52636 77.16043 0 0 0
250 -16.91187 -8.15248 77.49423 0 0 0
251 -17.61653 -8.17646 78.20337 0 0 0
252 -18.32119 -8.80258 78.53718 0 0 0
253 -19.02586 -8.82655 79.24632 0 0 0
254 -19.73052 -9.45267 79.58012 0 0 0
255 -20.43518 -9.47664 80.28926 0 0 0
256 -21.13984 -10.10276 80.62307 0 0 0
257 -21.84450 -10.12674 81.33221 0 0 0
258 -22.54916 -10.75286 81.66601 0 0 0
259 -23.25382 -10.77683 82.37515 0 0 0
260 -23.95848 -11.40295 82.70896 0 0 0
261 -24.66315 -11.42693 83.41810 0 0 0
262 -25.36781 -12.05305 83.75191 0 0 0
263 -26.07247 -12.07702 84.46104 0 0 0
264 -26.77713 -12.70314 84.79485 0 0 0
265 -27.48179 -12.72711 85.50399 0 0 0
266 -28.18645 -13.35323 85.83780 0 0 0
267 -28.89111 -13.37721 86.54694 0 0 0
268 -29.59577 -14.00333 86.88074 0 0 0
269 -30.30044 -14.02730 87.58988 0 0 0
270 -31.00510 -14.65342 87.92369 0 0 0
271 -31.70976 -14.67740 88.63283 0 0 0
272 -32.41442 -15.30351 88.96663 0 0 0
273 -33.11908 -15.32749 89.67577 0 0 0
274 -33.82374 -15.95361 90.00958 0 0 0
275 -34.52840 -15.97758 90.71872 0 0 0
276 -35.23307 -16.60370 91.05252 0 0 0
277 -35.93773 -16.62768 91.76166 0 0 0
278 -36.64239 -17.25380 92.09547 0 0 0
279 -37.34705 -17.27777 92.80461 0 0 0
280 -38.05171 -17.90389 93.13842 0 0 0
281 -38.75637 -17.92786 93.84755 0 0 0
282 -39.46103 -18.55398 94.18136 0 0 0
283 -40.16569 -18.57796 94.89050 0 0 0
284 -40.87036 -19.20408 95.22431 0 0 0
285 -41.57502 -19.22805 95.93345 0 0 0
286 -42.27968 -19.85417 96.26725 0 0 0
287 -42.98434 -19.87815 96.97639 0 0 0
288 -43.68900 -20.50426 97.31020 0 0 0
289 -44.39366 -20.52824 98.01934 0 0 0
290 -45.09832 -21.15436 98.35314 0 0 0
291 -45.80298 -21.17833 99.06228 0 0 0
292 -46.50765 -21.80445 99.39609 0 0 0
293 -47.21231 -21.82843 100.10523 0 0 0
294 -47.91697 -22.45455 100.43903 0 0 0
295 -48.62163 -22.47852 101.14817 0 0 0
296 -49.32629 -23.10464 101.48198 0 0 0
297 -50.03095 -23.12861 102.19112 0 0 0
298 -50.73561 -23.75473 102.52493 0 0 0
299 -51.44028 -23.77871 103.23406 0 0 0
300 -52.14494 -24.40483 103.56787 0 0 0
301 -52.84960 -24.42880 104.27701 0 0 0
ITEM: TIMESTEP
1000
ITEM: NUMBER OF ATOMS
301
ITEM: BOX BOUNDS pp pp pp
-1.0000000000000000e+03 1.0000000000000000e+03
-1.0000000000000000e+03 1.0000000000000000e+03
-1.0000000000000000e+03 1.0000000000000000e+03
ITEM: ATOMS id x y z ix iy iz
1 1.03001 -0.10039 5.13817 0 0 0
2 1.15860 0.65682 5.72422 0 0 0
3 0.92384 1.16546 6.55193 0 0 0
4 0.06131 0.77136 6.61557 0 0 0
5 -0.77562 0.32946 6.86870 0 0 0
6 -0.77346 -0.26188 7.61408 0 0 0
7 -0.71991 -0.22593 8.55986 0 0 0
8 0.22577 -0.12396 8.81770 0 0 0
9 1.22449 -0.40768 8.90824 0 0 0
10 0.90425 -1.31311 9.34206 0 0 0
11 0.24702 -1.69892 9.95781 0 0 0
12 -0.36002 -1.54895 10.67022 0 0 0
13 -0.59662 -1.44187 11.66037 0 0 0
14 -0.68222 -1.15047 12.58278 0 0 0
15 -1.02161 -0.72023 13.38204 0 0 0
16 -1.29133 -1.09675 14.32199 0 0 0
17 -1.09205 -0.79564 15.23585 0 0 0
18 -0.82237 -1.29588 16.02866 0 0 0
19 -0.76039 -1.61246 17.00623 0 0 0
20 -0.22560 -1.38018 17.93884 0 0 0
21 -0.05398 -1.42829 18.93963 0 0 0
22 -0.27613 -0.83881 19.64564 0 0 0
23 0.06601 -1.13714 20.56395 0 0 0
24 -0.09451 -1.48464 21.45799 0 0 0
25 -0.04434 -1.38649 22.40020 0 0 0
26 -0.44051 -0.74925 23.07748 0 0 0
27 -0.86796 -0.33346 23.83371 0 0 0
28 -1.29161 -0.16098 24.70985 0 0 0
29 -1.04496 0.53445 25.36289 0 0 0
30 -1.73868 0.76306 25.98637 0 0 0
31 -2.21515 0.68725 26.87286 0 0 0
32 -1.71328 0.58822 27.66251 0 0 0
33 -1.56175 0.76541 28.66381 0 0 0
34 -1.88942 0.59265 29.54438 0 0 0
35 -1.85749 0.23384 30.55528 0 0 0
36 -1.98309 -0.36282 31.37452 0 0 0
37 -2.00020 -0.95150 32.13869 0 0 0
38 -2.29997 -1.28345 32.98067 0 0 0
39 -2.10205 -1.13467 33.92480 0 0 0
40 -2.15740 -1.15403 34.95515 0 0 0
41 -2.05381 -1.46982 35.89219 0 0 0
42 -1.97806 -1.76638 36.76927 0 0 0
43 -1.51604 -1.59309 37.54484 0 0 0
44 -1.21025 -1.57454 38.50273 0 0 0
45 -1.22047 -1.88527 39.39013 0 0 0
46 -1.05109 -2.15980 40.35861 0 0 0
47 -0.91831 -1.84132 41.26482 0 0 0
48 -1.41349 -2.03714 42.07816 0 0 0
49 -1.35847 -2.12120 43.01262 0 0 0
50 -0.64097 -2.11904 43.62582 0 0 0
51 -0.76252 -2.20490 44.65945 0 0 0
52 -0.26935 -1.52322 45.21936 0 0 0
53 -0.26900 -1.21748 46.22751 0 0 0
54 -0.36913 -0.55923 47.04678 0 0 0
55 -0.37712 -0.01495 47.90531 0 0 0
56 0.05242 0.31387 48.74194 0 0 0
57 0.39919 0.84192 49.45004 0 0 0
58 0.74373 0.81130 50.35155 0 0 0
59 0.75014 1.00633 51.30320 0 0 0
60 0.30977 0.91140 52.15137 0 0 0
61 -0.14054 1.10693 53.02558 0 0 0
62 -0.96335 1.04026 53.47696 0 0 0
63 -0.64718 0.52081 54.29693 0 0 0
64 -0.47419 -0.09933 55.06899 0 0 0
65 -0.38582 -0.29780 56.02380 0 0 0
66 -0.47290 -0.18367 57.07443 0 0 0
67 -0.26013 0.18082 57.96882 0 0 0
68 0.27737 0.52999 58.71432 0 0 0
69 0.70554 0.20737 59.61491 0 0 0
70 0.95049 -0.15573 60.43385 0 0 0
71 0.47519 0.08326 61.28475 0 0 0
72 0.66497 -0.51534 62.05104 0 0 0
73 0.93942 -0.66326 63.01010 0 0 0
74 1.06256 -0.80269 64.00425 0 0 0
75 0.77058 -0.55937 65.03226 0 0 0
76 0.89049 -0.17240 65.96094 0 0 0
77 0.36229 0.56343 65.64894 0 0 0
78 -0.47522 1.04083 65.59441 0 0 0
79 -0.99873 1.83465 65.48292 0 0 0
80 -1.13618 2.68002 65.09346 0 0 0
81 -1.53023 3.49135 64.53412 0 0 0
82 -1.57164 4.48542 64.88885 0 0 0
83 -2.10864 5.22879 65.21862 0 0 0
84 -2.40031 6.23757 65.25778 0 0 0
85 -2.25821 7.16538 64.93884 0 0 0
86 -2.63150 7.55526 64.11719 0 0 0
87 -2.79113 8.30398 63.51416 0 0 0
88 -2.99140 9.10419 63.04391 0 0 0
89 -3.47249 9.90571 62.80591 0 0 0
90 -3.04835 10.75375 62.41645 0 0 0
91 -2.75366 11.72580 62.29348 0 0 0
92 -3.05698 12.62236 62.51682 0 0 0
93 -3.38366 13.55405 62.36090 0 0 0
94 -3.78064 14.42348 62.00602 0 0 0
95 -3.68876 15.34174 61.69818 0 0 0
96 -3.41144 16.27600 61.77337 0 0 0
97 -3.69627 17.15166 61.71518 0 0 0
98 -3.76506 18.06987 61.50861 0 0 0
99 -4.01261 18.88314 61.87319 0 0 0
100 -4.45285 19.59885 62.31542 0 0 0
101 -4.39652 20.40834 61.78596 0 0 0
102 -4.76044 21.10334 61.38499 0 0 0
103 -4.75284 22.04026 61.72427 0 0 0
104 -5.13813 22.93776 61.59542 0 0 0
105 -5.01796 23.92495 61.62183 0 0 0
106 -5.24478 24.90742 61.74292 0 0 0
107 -5.65587 25.77310 61.69140 0 0 0
108 -6.03620 26.67482 61.49968 0 0 0
109 -6.70039 27.37436 61.36897 0 0 0
110 -6.42615 28.31872 61.42045 0 0 0
111 -6.56277 29.30668 61.27876 0 0 0
112 -7.28766 30.10553 61.08083 0 0 0
113 -7.01870 30.84784 60.52527 0 0 0
114 -7.28151 31.83718 60.51525 0 0 0
115 -7.68032 32.73688 60.46364 0 0 0
116 -7.96247 33.66833 60.45062 0 0 0
117 -8.06108 34.66399 60.48253 0 0 0
118 -7.96966 35.53501 60.95191 0 0 0
119 -7.88429 36.25998 60.36032 0 0 0
120 -8.52211 36.75434 59.75750 0 0 0
121 -9.22428 37.50866 59.77354 0 0 0
122 -9.49205 38.38086 59.62485 0 0 0
123 -10.24228 38.78783 59.00362 0 0 0
124 -10.61975 39.69871 58.96010 0 0 0
125 -10.73620 40.40084 58.17774 0 0 0
126 -11.00145 41.35664 58.30833 0 0 0
127 -11.42289 42.23306 57.92793 0 0 0
128 -11.54882 43.13820 57.60537 0 0 0
129 -11.51217 44.06586 57.50382 0 0 0
130 -12.25284 44.79596 57.74498 0 0 0
131 -12.12714 45.43593 57.10757 0 0 0
132 -11.60523 45.85659 56.33782 0 0 0
133 -11.00420 46.74586 56.29612 0 0 0
134 -10.86863 47.62741 56.74355 0 0 0
135 -11.28529 48.41883 56.01758 0 0 0
136 -11.29875 49.37619 55.83596 0 0 0
137 -11.65693 50.29015 55.62110 0 0 0
138 -11.16965 51.09057 55.09948 0 0 0
139 -11.79901 51.74041 55.46681 0 0 0
140 -12.09410 52.44167 56.10662 0 0 0
141 -12.72967 53.23773 56.01468 0 0 0
142 -12.79039 54.16756 55.76779 0 0 0
143 -12.99376 54.74090 56.60136 0 0 0
144 -13.02472 55.71429 56.87613 0 0 0
145 -13.52722 56.55880 56.86311 0 0 0
146 -13.89093 57.24163 56.15223 0 0 0
147 -13.95150 58.12200 55.73638 0 0 0
148 -13.39570 58.85609 55.41339 0 0 0
149 -12.56773 58.99572 54.89061 0 0 0
150 -12.84042 59.92989 54.60567 0 0 0
151 -12.35919 60.73604 54.42557 0 0 0
152 1.82788 -0.01964 66.23461 0 0 0
153 2.66865 0.14042 66.71845 0 0 0
154 3.52673 0.69472 66.78259 0 0 0
155 3.95169 0.98361 67.55320 0 0 0
156 4.96068 0.78865 67.44068 0 0 0
157 5.91828 0.64464 67.74621 0 0 0
158 6.88716 0.51339 67.69815 0 0 0
159 7.87954 0.51572 68.04456 0 0 0
160 8.74817 0.40085 68.63605 0 0 0
161 9.50556 0.34631 69.20426 0 0 0
162 10.06389 0.12706 70.05797 0 0 0
163 10.96661 -0.13199 70.27981 0 0 0
164 11.89787 -0.12784 70.58592 0 0 0
165 12.85395 0.10788 70.71112 0 0 0
166 13.74378 0.01703 71.00403 0 0 0
167 14.70746 0.06759 71.07926 0 0 0
168 15.59314 -0.21339 71.20497 0 0 0
169 16.43248 -0.40175 71.86102 0 0 0
170 17.01869 -1.11837 71.83680 0 0 0
171 17.88430 -0.66422 72.07648 0 0 0
172 18.65404 -0.96135 72.61832 0 0 0
173 19.53974 -1.01943 73.11897 0 0 0
174 20.61599 -0.99366 73.12157 0 0 0
175 21.54494 -0.91883 73.42600 0 0 0
176 22.18943 -0.94189 74.16505 0 0 0
177 23.15858 -0.90441 73.93054 0 0 0
178 23.79672 -0.41539 74.60107 0 0 0
179 24.70027 -0.72935 74.80629 0 0 0
180 25.70415 -0.89588 74.87056 0 0 0
181 26.59377 -1.21632 75.24231 0 0 0
182 27.45780 -1.30280 75.69493 0 0 0
183 28.43586 -1.39662 76.08726 0 0 0
184 29.23685 -1.52237 76.62324 0 0 0
185 30.20431 -1.52669 76.93228 0 0 0
186 31.11851 -1.29741 77.55733 0 0 0
187 32.02732 -1.38639 77.91768 0 0 0
188 32.87861 -1.87906 78.14319 0 0 0
189 33.80538 -2.27962 78.38178 0 0 0
190 34.43265 -2.06812 79.21071 0 0 0
191 35.35212 -2.31500 79.07638 0 0 0
192 36.18866 -2.07624 79.57769 0 0 0
193 37.10552 -2.11056 80.09258 0 0 0
194 38.00835 -2.29212 80.23920 0 0 0
195 38.92051 -2.24707 80.55329 0 0 0
196 39.96763 -2.39967 80.66614 0 0 0
197 40.59445 -2.29560 81.58583 0 0 0
198 41.52338 -2.41095 82.08646 0 0 0
199 42.24366 -3.07330 82.38592 0 0 0
200 43.11454 -3.22444 82.70174 0 0 0
201 43.94445 -3.59447 83.19410 0 0 0
202 44.72509 -3.51784 83.69685 0 0 0
203 45.46680 -3.25619 84.32546 0 0 0
204 45.98777 -2.60073 84.90807 0 0 0
205 46.74036 -3.14245 84.52090 0 0 0
206 47.41661 -3.82622 85.02032 0 0 0
207 48.21687 -4.09626 85.51358 0 0 0
208 49.19859 -4.21579 85.33428 0 0 0
209 49.83519 -3.49719 85.47981 0 0 0
210 50.68741 -3.79798 85.82723 0 0 0
211 51.47278 -3.52950 86.40976 0 0 0
212 51.88696 -4.11159 87.04104 0 0 0
213 52.62454 -4.12452 87.53040 0 0 0
214 53.58691 -4.40534 87.37674 0 0 0
215 54.19884 -5.07579 87.53839 0 0 0
216 55.20226 -5.10534 87.69377 0 0 0
217 56.08503 -5.25913 87.98286 0 0 0
218 56.92279 -5.65092 88.40749 0 0 0
219 57.92044 -5.62445 88.60332 0 0 0
220 58.62486 -5.84150 89.36536 0 0 0
221 59.49915 -5.70300 89.55785 0 0 0
222 60.40380 -5.48723 89.49212 0 0 0
223 60.42906 -5.50563 90.43040 0 0 0
224 60.94642 -5.64062 91.35816 0 0 0
225 60.71194 -6.18930 92.09743 0 0 0
226 61.46195 -6.82050 92.51626 0 0 0
227 0.06447 -0.68913 66.26897 0 0 0
228 -0.61095 -1.23060 66.68672 0 0 0
229 -1.47483 -1.58899 67.00179 0 0 0
230 -2.54678 -1.69414 67.00904 0 0 0
231 -3.19991 -1.84471 67.77462 0 0 0
232 -4.18421 -1.74946 68.04471 0 0 0
233 -5.01225 -2.36496 68.56381 0 0 0
234 -5.84593 -2.44163 69.09713 0 0 0
235 -6.65457 -2.43623 69.66993 0 0 0
236 -7.27848 -2.55737 70.55199 0 0 0
237 -7.62892 -2.79679 71.54002 0 0 0
238 -8.55324 -2.72498 71.16062 0 0 0
239 -9.35432 -3.19363 71.52426 0 0 0
240 -9.89463 -3.59287 72.28705 0 0 0
241 -10.63604 -3.95753 72.80843 0 0 0
242 -11.17287 -4.75687 73.04602 0 0 0
243 -11.99165 -4.96850 73.47245 0 0 0
244 -12.59187 -5.66543 73.78043 0 0 0
245 -13.17218 -6.36873 74.21294 0 0 0
246 -13.90092 -6.98608 74.53260 0 0 0
247 -14.30332 -7.38082 75.38480 0 0 0
248 -15.08036 -7.61343 75.92880 0 0 0
249 -16.04846 -7.72129 76.41862 0 0 0
250 -16.79132 -8.25940 76.65859 0 0 0
251 -17.32797 -9.07631 77.07060 0 0 0
252 -18.18418 -8.93298 77.51885 0 0 0
253 -18.88788 -9.46137 77.88582 0 0 0
254 -19.52600 -9.93563 78.47867 0 0 0
255 -20.38529 -10.37084 78.67193 0 0 0
256 -20.85709 -10.73238 79.49523 0 0 0
257 -21.41744 -10.86384 80.24790 0 0 0
258 -21.46747 -11.34813 81.15077 0 0 0
259 -22.00261 -12.03892 81.63743 0 0 0
260 -22.87462 -12.13961 82.15476 0 0 0
261 -23.69848 -11.65578 82.41796 0 0 0
262 -24.47342 -11.70649 82.95991 0 0 0
263 -25.31439 -11.83873 83.56033 0 0 0
264 -26.25858 -11.67417 83.71489 0 0 0
265 -27.12439 -11.67019 84.31533 0 0 0
266 -27.78677 -11.81406 85.12512 0 0 0
267 -28.38967 -11.82387 85.91685 0 0 0
268 -28.98088 -12.51855 86.35663 0 0 0
269 -29.88166 -12.79448 86.61716 0 0 0
270 -30.46368 -13.07110 87.31446 0 0 0
271 -31.36622 -13.48798 87.72257 0 0 0
272 -32.10055 -13.70635 88.32397 0 0 0
273 -32.63821 -13.91588 89.05912 0 0 0
274 -33.58736 -13.92854 89.44798 0 0 0
275 -34.44663 -14.31984 89.81099 0 0 0
276 -34.92587 -15.15858 89.68968 0 0 0
277 -35.08768 -15.97466 90.25973 0 0 0
278 -35.59867 -16.53047 90.86422 0 0 0
279 -36.47469 -16.73986 91.44867 0 0 0
280 -36.79446 -17.25538 92.22681 0 0 0
281 -37.59633 -17.87381 92.34935 0 0 0
282 -38.47654 -17.84430 92.80806 0 0 0
283 -39.14360 -18.11368 93.62357 0 0 0
284 -39.65008 -18.20946 94.46390 0 0 0
285 -40.01244 -18.90600 95.11236 0 0 0
286 -40.28080 -18.77002 96.09566 0 0 0
287 -41.25888 -18.79454 96.10102 0 0 0
288 -42.30690 -18.71717 96.37097 0 0 0
289 -43.21586 -18.97896 96.13024 0 0 0
290 -43.95743 -19.59909 96.14578 0 0 0
291 -44.49257 -19.74366 97.03043 0 0 0
292 -44.85771 -20.46031 97.58763 0 0 0
293 -45.25036 -20.54536 98.48034 0 0 0
294 -46.03890 -20.76026 99.00413 0 0 0
295 -46.79187 -21.37074 99.35013 0 0 0
296 -47.18865 -22.23495 99.64633 0 0 0
297 -47.96234 -22.65042 100.13992 0 0 0
298 -48.76860 -22.12036 100.32742 0 0 0
299 -49.69814 -22.17441 100.73739 0 0 0
300 -50.60628 -21.87157 100.59192 0 0 0
301 -51.21207 -22.62669 100.38440 0 0 0
ITEM: TIMESTEP
2000
ITEM: NUMBER OF ATOMS
301
ITEM: BOX BOUNDS pp pp pp
-1.0000000000000000e+03 1.0000000000000000e+03
-1.0000000000000000e+03 1.0000000000000000e+03
-1.0000000000000000e+03 1.0000000000000000e+03
ITEM: ATOMS id x y z ix iy iz
1 -0.91665 1.54038 6.29226 0 0 0
2 -0.72084 2.49115 6.37320 0 0 0
3 -0.25106 2.22954 7.20086 0 0 0
4 0.29021 2.01364 7.98724 0 0 0
5 0.80648 1.58236 8.66844 0 0 0
6 0.99413 1.37170 9.59652 0 0 0
7 0.83738 1.83648 10.45334 0 0 0
8 1.07516 1.69330 11.35653 0 0 0
9 1.21654 0.76794 11.62569 0 0 0
10 1.29708 0.16069 12.31510 0 0 0
11 0.77069 0.20340 13.13528 0 0 0
12 0.38520 0.35075 14.04552 0 0 0
13 0.09199 -0.46787 14.41298 0 0 0
14 0.13532 -1.01976 15.28653 0 0 0
15 0.66519 -0.37639 15.89757 0 0 0
16 0.34734 0.23166 16.58897 0 0 0
17 0.48566 0.03366 17.50005 0 0 0
18 0.99460 -0.54727 18.02348 0 0 0
19 1.20173 0.21032 18.68353 0 0 0
20 0.80025 -0.54665 19.14972 0 0 0
21 0.13492 -0.72575 19.90198 0 0 0
22 -0.04478 -1.34026 20.65010 0 0 0
23 -0.41913 -1.36107 21.54452 0 0 0
24 0.03631 -1.91328 22.22735 0 0 0
25 0.09251 -1.98478 23.22780 0 0 0
26 -0.39038 -2.39679 24.00895 0 0 0
27 -0.78912 -2.40928 24.94745 0 0 0
28 -1.35663 -2.36186 25.72501 0 0 0
29 -1.63120 -2.48699 26.58834 0 0 0
30 -1.83810 -2.56809 27.48424 0 0 0
31 -2.14808 -2.73170 28.38245 0 0 0
32 -2.03615 -2.10283 29.13189 0 0 0
33 -2.25790 -2.19465 30.05951 0 0 0
34 -2.68578 -1.73836 30.74820 0 0 0
35 -2.17657 -1.48669 31.54920 0 0 0
36 -1.89841 -1.78475 32.45164 0 0 0
37 -2.11799 -2.13223 33.33954 0 0 0
38 -2.42236 -1.85473 34.20062 0 0 0
39 -2.28556 -1.40281 35.06028 0 0 0
40 -2.62600 -1.19282 35.96165 0 0 0
41 -2.56768 -1.00201 36.94397 0 0 0
42 -2.34681 -0.83425 37.97251 0 0 0
43 -2.16366 0.06482 38.30285 0 0 0
44 -1.34104 0.60622 38.20705 0 0 0
45 -1.42101 0.37009 39.15729 0 0 0
46 -1.85013 0.60108 40.00114 0 0 0
47 -1.87992 1.09729 40.85732 0 0 0
48 -1.52055 1.12922 41.82574 0 0 0
49 -1.65595 0.88854 42.71968 0 0 0
50 -1.51907 1.50887 43.59233 0 0 0
51 -1.49311 1.32246 44.57133 0 0 0
52 -1.46587 1.16808 45.55476 0 0 0
53 -1.54069 0.81471 46.50659 0 0 0
54 -1.61836 0.77520 47.46002 0 0 0
55 -1.77059 0.16103 48.23177 0 0 0
56 -1.65894 -0.11694 49.14093 0 0 0
57 -1.54251 -0.32358 50.10568 0 0 0
58 -2.06737 -0.36002 50.86510 0 0 0
59 -2.15851 0.30705 51.58741 0 0 0
60 -1.95822 0.24200 52.49895 0 0 0
61 -1.50947 0.38412 53.41324 0 0 0
62 -1.03620 0.24401 54.23215 0 0 0
63 -0.91529 0.30794 55.18831 0 0 0
64 -0.21253 0.37527 55.80513 0 0 0
65 -0.34253 0.10024 56.81311 0 0 0
66 -0.23330 0.09604 57.76194 0 0 0
67 -0.04665 0.14477 58.64636 0 0 0
68 -0.40968 0.20696 59.55059 0 0 0
69 -0.60606 0.01370 60.44097 0 0 0
70 -0.85573 -0.27311 61.37780 0 0 0
71 -0.66826 -0.05044 62.32342 0 0 0
72 0.22630 -0.43150 62.75597 0 0 0
73 0.47960 0.02827 63.56758 0 0 0
74 0.81395 -0.32988 64.41193 0 0 0
75 1.31400 -0.11014 65.26262 0 0 0
76 1.21318 0.36514 66.13821 0 0 0
77 0.71516 1.05254 65.64415 0 0 0
78 0.06959 1.71333 65.70376 0 0 0
79 -0.64720 2.29668 65.21774 0 0 0
80 -0.78794 2.96693 64.49339 0 0 0
81 -0.65641 3.76729 63.84822 0 0 0
82 -0.28091 4.63666 64.15560 0 0 0
83 -0.45678 5.51291 63.83927 0 0 0
84 -1.28487 5.82664 63.43089 0 0 0
85 -0.87149 6.62385 63.06753 0 0 0
86 -0.64059 7.65915 63.19751 0 0 0
87 -1.00467 8.57937 62.91502 0 0 0
88 -1.34294 9.44643 63.19355 0 0 0
89 -1.89708 10.28780 63.13515 0 0 0
90 -2.63030 10.95032 63.22475 0 0 0
91 -2.43110 11.92201 63.37211 0 0 0
92 -2.09216 12.76583 63.53429 0 0 0
93 -1.88425 13.75910 63.37188 0 0 0
94 -2.35043 14.54101 63.68879 0 0 0
95 -2.59568 15.57444 63.58250 0 0 0
96 -2.59889 16.48170 63.52952 0 0 0
97 -2.83063 17.33701 63.84109 0 0 0
98 -2.89125 18.32329 63.56813 0 0 0
99 -2.78264 19.29466 63.50378 0 0 0
100 -3.39400 19.86163 62.97677 0 0 0
101 -3.73351 20.76948 63.08956 0 0 0
102 -4.06261 21.71230 62.98326 0 0 0
103 -3.66179 22.57677 63.15919 0 0 0
104 -3.87676 23.45281 62.74350 0 0 0
105 -3.98269 24.39605 62.56415 0 0 0
106 -4.61730 25.12927 62.76322 0 0 0
107 -5.05039 25.94746 62.66621 0 0 0
108 -5.62117 26.38874 61.97463 0 0 0
109 -5.31961 27.11555 61.40631 0 0 0
110 -5.67054 28.01829 61.30325 0 0 0
111 -5.58866 28.97130 61.30166 0 0 0
112 -5.46949 29.84993 61.00912 0 0 0
113 -5.38051 30.75105 60.91837 0 0 0
114 -5.50747 31.72013 61.13736 0 0 0
115 -5.48305 32.68774 61.25664 0 0 0
116 -5.74941 33.63154 61.00088 0 0 0
117 -6.52594 34.27297 61.16261 0 0 0
118 -6.90230 34.93727 60.70780 0 0 0
119 -7.42965 35.79626 60.97678 0 0 0
120 -7.49478 36.71740 60.70478 0 0 0
121 -7.77537 37.67489 60.56193 0 0 0
122 -7.63586 38.49070 60.06390 0 0 0
123 -8.16854 39.26803 59.95875 0 0 0
124 -8.86788 39.33271 59.31014 0 0 0
125 -9.06465 40.04135 58.54574 0 0 0
126 -9.60777 40.75102 58.26820 0 0 0
127 -9.79597 41.67879 57.96115 0 0 0
128 -10.37472 42.38793 57.48308 0 0 0
129 -10.57326 43.33695 57.59876 0 0 0
130 -11.14610 44.03758 57.89403 0 0 0
131 -11.40838 44.46477 58.69949 0 0 0
132 -11.66245 45.40036 58.42426 0 0 0
133 -12.04608 46.20236 57.91839 0 0 0
134 -12.52155 47.08500 57.68352 0 0 0
135 -12.38655 47.75825 58.36125 0 0 0
136 -12.56786 48.78436 58.40211 0 0 0
137 -13.10135 49.23909 57.74163 0 0 0
138 -13.94470 49.16485 58.19259 0 0 0
139 -13.94018 50.08217 58.03876 0 0 0
140 -14.20671 51.08870 58.22735 0 0 0
141 -14.37579 51.12688 57.26632 0 0 0
142 -13.84542 51.70315 56.63983 0 0 0
143 -12.92872 52.17912 56.64280 0 0 0
144 -13.64198 52.82868 56.61711 0 0 0
145 -13.03098 53.40039 56.06171 0 0 0
146 -12.66904 54.35979 55.82374 0 0 0
147 -12.28181 55.14160 55.32746 0 0 0
148 -12.49119 56.01453 54.89129 0 0 0
149 -13.19198 56.17998 55.55937 0 0 0
150 -12.80679 56.40188 56.42452 0 0 0
151 -11.84850 56.63626 56.39807 0 0 0
152 2.15895 0.73781 66.36102 0 0 0
153 3.11376 0.54536 66.75562 0 0 0
154 4.09314 0.33149 66.89489 0 0 0
155 4.89750 0.28501 67.53134 0 0 0
156 5.65459 -0.30532 67.66907 0 0 0
157 6.40964 -0.03196 68.18230 0 0 0
158 7.39545 0.07945 68.50861 0 0 0
159 8.03485 -0.46535 69.03497 0 0 0
160 8.80371 -0.83125 69.46719 0 0 0
161 9.72802 -0.54589 69.16667 0 0 0
162 10.57425 -0.41369 69.55398 0 0 0
163 11.39093 -0.88800 69.76363 0 0 0
164 12.19690 -0.97938 70.38122 0 0 0
165 13.06151 -0.54486 70.48345 0 0 0
166 13.93138 -0.44863 70.96035 0 0 0
167 14.91057 -0.54426 70.82191 0 0 0
168 15.92782 -0.39779 71.00336 0 0 0
169 16.75773 -0.39940 71.52142 0 0 0
170 17.66761 -0.61329 71.79419 0 0 0
171 18.14758 -0.70527 72.66688 0 0 0
172 18.99476 -0.50828 72.95072 0 0 0
173 19.83645 -0.53409 73.57041 0 0 0
174 20.79152 -0.57438 73.73373 0 0 0
175 21.69549 -0.85447 73.92300 0 0 0
176 22.64313 -0.67189 73.57835 0 0 0
177 23.62939 -0.60551 73.88618 0 0 0
178 24.42163 -1.16501 74.00156 0 0 0
179 25.36181 -1.18724 74.39291 0 0 0
180 26.32307 -1.43815 74.56690 0 0 0
181 27.19804 -1.14264 74.88401 0 0 0
182 28.05982 -1.19466 75.29851 0 0 0
183 28.74588 -1.39218 75.96693 0 0 0
184 29.76516 -1.64188 76.20135 0 0 0
185 30.70098 -1.47325 76.41226 0 0 0
186 31.55380 -1.75643 76.74717 0 0 0
187 32.38432 -2.35601 76.95401 0 0 0
188 32.94589 -1.78067 77.45699 0 0 0
189 33.68083 -1.96985 78.02621 0 0 0
190 34.56478 -2.18027 78.46602 0 0 0
191 35.47570 -2.41524 78.60622 0 0 0
192 36.42397 -2.02547 78.96758 0 0 0
193 37.42527 -2.11607 79.18231 0 0 0
194 38.33698 -1.73874 79.41955 0 0 0
195 39.01731 -2.30069 79.86999 0 0 0
196 39.88248 -2.41443 80.32471 0 0 0
197 40.81623 -2.47406 80.70764 0 0 0
198 41.45562 -2.25508 81.47474 0 0 0
199 42.08357 -2.77691 82.06168 0 0 0