ITEM: TIMESTEP
0
ITEM: NUMBER OF ATOMS
401
ITEM: BOX BOUNDS pp pp pp
-1.0000000000000000e+03 1.0000000000000000e+03
-1.0000000000000000e+03 1.0000000000000000e+03
-1.0000000000000000e+03 1.0000000000000000e+03
ITEM: ATOMS id x y z ix iy iz
1 0.00000 0.00000 0.00000 0 0 0
2 0.00000 0.00000 1.00000 0 0 0
3 0.00000 -0.50000 1.86603 0 0 0
4 0.00000 0.00000 2.73205 0 0 0
5 0.00000 -0.50000 3.59808 0 0 0
6 0.00000 0.00000 4.46410 0 0 0
7 0.00000 -0.50000 5.33013 0 0 0
8 0.00000 0.00000 6.19615 0 0 0
9 0.00000 -0.50000 7.06218 0 0 0
10 0.00000 0.00000 7.92820 0 0 0
11 0.00000 -0.50000 8.79423 0 0 0
12 0.00000 0.00000 9.66025 0 0 0
13 0.00000 -0.50000 10.52628 0 0 0
14 0.00000 0.00000 11.39230 0 0 0
15 0.00000 -0.50000 12.25833 0 0 0
16 0.00000 0.00000 13.12436 0 0 0
17 0.00000 -0.50000 13.99038 0 0 0
18 0.00000 0.00000 14.85641 0 0 0
19 0.00000 -0.50000 15.72243 0 0 0
20 0.00000 0.00000 16.58846 0 0 0
21 0.00000 -0.50000 17.45448 0 0 0
22 0.00000 0.00000 18.32051 0 0 0
23 0.00000 -0.50000 19.18653 0 0 0
24 0.00000 0.00000 20.05256 0 0 0
25 0.00000 -0.50000 20.91858 0 0 0
26 0.00000 0.00000 21.78461 0 0 0
27 0.00000 -0.50000 22.65064 0 0 0
28 0.00000 0.00000 23.51666 0 0 0
29 0.00000 -0.50000 24.38269 0 0 0
30 0.00000 0.00000 25.24871 0 0 0
31 0.00000 -0.50000 26.11474 0 0 0
32 0.00000 0.00000 26.98076 0 0 0
33 0.00000 -0.50000 27.84679 0 0 0
34 0.00000 0.00000 28.71281 0 0 0
35 0.00000 -0.50000 29.57884 0 0 0
36 0.00000 0.00000 30.44486 0 0 0
37 0.00000 -0.50000 31.31089 0 0 0
38 0.00000 0.00000 32.17691 0 0 0
39 0.00000 -0.50000 33.04294 0 0 0
40 0.00000 0.00000 33.90897 0 0 0
41 0.00000 -0.50000 34.77499 0 0 0
42 0.00000 0.00000 35.64102 0 0 0
43 0.00000 -0.50000 36.50704 0 0 0
44 0.00000 0.00000 37.37307 0 0 0
45 0.00000 -0.50000 38.23909 0 0 0
46 0.00000 0.00000 39.10512 0 0 0
47 0.00000 -0.50000 39.97114 0 0 0
48 0.00000 0.00000 40.83717 0 0 0
49 0.00000 -0.50000 41.70319 0 0 0
50 0.00000 0.00000 42.56922 0 0 0
51 0.00000 -0.50000 43.43524 0 0 0
52 0.00000 0.00000 44.30127 0 0 0
53 0.00000 -0.50000 45.16730 0 0 0
54 0.00000 0.00000 46.03332 0 0 0
55 0.00000 -0.50000 46.89935 0 0 0
56 0.00000 0.00000 47.76537 0 0 0
57 0.00000 -0.50000 48.63140 0 0 0
58 0.00000 0.00000 49.49742 0 0 0
59 0.00000 -0.50000 50.36345 0 0 0
60 0.00000 0.00000 51.22947 0 0 0
61 0.00000 -0.50000 52.09550 0 0 0
62 0.00000 0.00000 52.96152 0 0 0
63 0.00000 -0.50000 53.82755 0 0 0
64 0.00000 0.00000 54.69358 0 0 0
65 0.00000 -0.50000 55.55960 0 0 0
66 0.00000 0.00000 56.42563 0 0 0
67 0.00000 -0.50000 57.29165 0 0 0
68 0.00000 0.00000 58.15768 0 0 0
69 0.00000 -0.50000 59.02370 0 0 0
70 0.00000 0.00000 59.88973 0 0 0
71 0.00000 -0.50000 60.75575 0 0 0
72 0.00000 0.00000 61.62178 0 0 0
73 0.00000 -0.50000 62.48780 0 0 0
74 0.00000 0.00000 63.35383 0 0 0
75 0.00000 -0.50000 64.21985 0 0 0
76 0.00000 0.00000 65.08588 0 0 0
77 0.00000 -0.50000 65.95191 0 0 0
78 0.00000 0.00000 66.81793 0 0 0
79 0.00000 -0.50000 67.68396 0 0 0
80 0.00000 0.00000 68.54998 0 0 0
81 0.00000 -0.50000 69.41601 0 0 0
82 0.00000 0.00000 70.28203 0 0 0
83 0.00000 -0.50000 71.14806 0 0 0
84 0.00000 0.00000 72.01408 0 0 0
85 0.00000 -0.50000 72.88011 0 0 0
86 0.00000 0.00000 73.74613 0 0 0
87 0.00000 -0.50000 74.61216 0 0 0
88 0.00000 0.00000 75.47818 0 0 0
89 0.00000 -0.50000 76.34421 0 0 0
90 0.00000 0.00000 77.21024 0 0 0
91 0.00000 -0.50000 78.07626 0 0 0
92 0.00000 0.00000 78.94229 0 0 0
93 0.00000 -0.50000 79.80831 0 0 0
94 0.00000 0.00000 80.67434 0 0 0
95 0.00000 -0.50000 81.54036 0 0 0
96 0.00000 0.00000 82.40639 0 0 0
97 0.00000 -0.50000 83.27241 0 0 0
98 0.00000 0.00000 84.13844 0 0 0
99 0.00000 -0.50000 85.00446 0 0 0
100 0.00000 0.00000 85.87049 0 0 0
101 0.00000 -0.50000 86.73651 0 0 0
102 0.93961 -0.73232 86.98783 0 0 0
103 1.87922 -1.05918 87.08931 0 0 0
104 2.81883 -1.13472 87.42312 0 0 0
105 3.75844 -1.46157 87.52460 0 0 0
106 4.69805 -1.53711 87.85841 0 0 0
107 5.63766 -1.86397 87.95989 0 0 0
108 6.57727 -1.93951 88.29370 0 0 0
109 7.51688 -2.26637 88.39518 0 0 0
110 8.45649 -2.34191 88.72899 0 0 0
111 9.39610 -2.66876 88.83048 0 0 0
112 10.33571 -2.74430 89.16428 0 0 0
113 11.27532 -3.07116 89.26577 0 0 0
114 12.21493 -3.14670 89.59957 0 0 0
115 13.15454 -3.47355 89.70106 0 0 0
116 14.09415 -3.54909 90.03486 0 0 0
117 15.03376 -3.87595 90.13635 0 0 0
118 15.97337 -3.95149 90.47015 0 0 0
119 16.91298 -4.27834 90.57164 0 0 0
120 17.85259 -4.35389 90.90544 0 0 0
121 18.79220 -4.68074 91.00693 0 0 0
122 19.73181 -4.75628 91.34073 0 0 0
123 20.67142 -5.08314 91.44222 0 0 0
124 21.61103 -5.15868 91.77602 0 0 0
125 22.55064 -5.48553 91.87751 0 0 0
126 23.49025 -5.56107 92.21132 0 0 0
127 24.42986 -5.88793 92.31280 0 0 0
128 25.36947 -5.96347 92.64661 0 0 0
129 26.30908 -6.29032 92.74809 0 0 0
130 27.24869 -6.36586 93.08190 0 0 0
131 28.18829 -6.69272 93.18338 0 0 0
132 29.12790 -6.76826 93.51719 0 0 0
133 30.06751 -7.09512 93.61867 0 0 0
134 31.00712 -7.17066 93.95248 0 0 0
135 31.94673 -7.49751 94.05396 0 0 0
136 32.88634 -7.57305 94.38777 0 0 0
137 33.82595 -7.89991 94.48925 0 0 0
138 34.76556 -7.97545 94.82306 0 0 0
139 35.70517 -8.30230 94.92454 0 0 0
140 36.64478 -8.37784 95.25835 0 0 0
141 37.58439 -8.70470 95.35983 0 0 0
142 38.52400 -8.78024 95.69364 0 0 0
143 39.46361 -9.10709 95.79512 0 0 0
144 40.40322 -9.18263 96.12893 0 0 0
145 41.34283 -9.50949 96.23041 0 0 0
146 42.28244 -9.58503 96.56422 0 0 0
147 43.22205 -9.91189 96.66570 0 0 0
148 44.16166 -9.98743 96.99951 0 0 0
149 45.10127 -10.31428 97.10099 0 0 0
150 46.04088 -10.38982 97.43480 0 0 0
151 46.98049 -10.71668 97.53628 0 0 0
152 47.92010 -10.79222 97.87009 0 0 0
153 48.85971 -11.11907 97.97157 0 0 0
154 49.79932 -11.19461 98.30538 0 0 0
155 50.73893 -11.52147 98.40686 0 0 0
156 51.67854 -11.59701 98.74067 0 0 0
157 52.61815 -11.92386 98.84215 0 0 0
158 53.55776 -11.99940 99.17596 0 0 0
159 54.49737 -12.32626 99.27745 0 0 0
160 55.43698 -12.40180 99.61125 0 0 0
161 56.37659 -12.72866 99.71274 0 0 0
162 57.31620 -12.80420 100.04654 0 0 0
163 58.25581 -13.13105 100.14803 0 0 0
164 59.19542 -13.20659 100.48183 0 0 0
165 60.13503 -13.53345 100.58332 0 0 0
166 61.07464 -13.60899 100.91712 0 0 0
167 62.01425 -13.93584 101.01861 0 0 0
168 62.95386 -14.01138 101.35241 0 0 0
169 63.89347 -14.33824 101.45390 0 0 0
170 64.83308 -14.41378 101.78770 0 0 0
171 65.77269 -14.74063 101.88919 0 0 0
172 66.71230 -14.81617 102.22299 0 0 0
173 67.65191 -15.14303 102.32448 0 0 0
174 68.59152 -15.21857 102.65829 0 0 0
175 69.53113 -15.54543 102.75977 0 0 0
176 70.47074 -15.62097 103.09358 0 0 0
177 71.41035 -15.94782 103.19506 0 0 0
178 72.34996 -16.02336 103.52887 0 0 0
179 73.28957 -16.35022 103.63035 0 0 0
180 74.22918 -16.42576 103.96416 0 0 0
181 75.16879 -16.75261 104.06564 0 0 0
182 76.10840 -16.82815 104.39945 0 0 0
183 77.04801 -17.15501 104.50093 0 0 0
184 77.98762 -17.23055 104.83474 0 0 0
185 78.92723 -17.55740 104.93622 0 0 0
186 79.86684 -17.63294 105.27003 0 0 0
187 80.80645 -17.95980 105.37151 0 0 0
188 81.74606 -18.03534 105.70532 0 0 0
189 82.68567 -18.36220 105.80680 0 0 0
190 83.62527 -18.43774 106.14061 0 0 0
191 84.56488 -18.76459 106.24209 0 0 0
192 85.50449 -18.84013 106.57590 0 0 0
193 86.44410 -19.16699 106.67738 0 0 0
194 87.38371 -19.24253 107.01119 0 0 0
195 88.32332 -19.56938 107.11267 0 0 0
196 89.26293 -19.64492 107.44648 0 0 0
197 90.20254 -19.97178 107.54796 0 0 0
198 91.14215 -20.04732 107.88177 0 0 0
199 92.08176 -20.37417 107.98325 0 0 0
200 93.02137 -20.44972 108.31706 0 0 0
201 93.96098 -20.77657 108.41854 0 0 0
202 -0.53522 -1.33890 86.63762 0 0 0
203 -1.07045 -2.01596 86.13253 0 0 0
204 -1.60567 -2.79192 86.46634 0 0 0
205 -2.14090 -3.46898 85.96124 0 0 0
206 -2.67612 -4.24494 86.29505 0 0 0
207 -3.21135 -4.92200 85.78995 0 0 0
208 -3.74657 -5.69796 86.12376 0 0 0
209 -4.28180 -6.37502 85.61867 0 0 0
210 -4.81702 -7.15098 85.95247 0 0 0
211 -5.35225 -7.82804 85.44738 0 0 0
212 -5.88747 -8.60400 85.78119 0 0 0
213 -6.42270 -9.28106 85.27609 0 0 0
214 -6.95792 -10.05701 85.60990 0 0 0
215 -7.49315 -10.73408 85.10481 0 0 0
216 -8.02837 -11.51003 85.43861 0 0 0
217 -8.56360 -12.18710 84.93352 0 0 0
218 -9.09882 -12.96305 85.26733 0 0 0
219 -9.63405 -13.64012 84.76223 0 0 0
220 -10.16927 -14.41607 85.09604 0 0 0
221 -10.70450 -15.09313 84.59094 0 0 0
222 -11.23972 -15.86909 84.92475 0 0 0
223 -11.77495 -16.54615 84.41966 0 0 0
224 -12.31017 -17.32211 84.75346 0 0 0
225 -12.84539 -17.99917 84.24837 0 0 0
226 -13.38062 -18.77513 84.58218 0 0 0
227 -13.91584 -19.45219 84.07708 0 0 0
228 -14.45107 -20.22815 84.41089 0 0 0
229 -14.98629 -20.90521 83.90580 0 0 0
230 -15.52152 -21.68117 84.23960 0 0 0
231 -16.05674 -22.35823 83.73451 0 0 0
232 -16.59197 -23.13418 84.06832 0 0 0
233 -17.12719 -23.81125 83.56322 0 0 0
234 -17.66242 -24.58720 83.89703 0 0 0
235 -18.19764 -25.26427 83.39193 0 0 0
236 -18.73287 -26.04022 83.72574 0 0 0
237 -19.26809 -26.71729 83.22065 0 0 0
238 -19.80332 -27.49324 83.55445 0 0 0
239 -20.33854 -28.17030 83.04936 0 0 0
240 -20.87377 -28.94626 83.38317 0 0 0
241 -21.40899 -29.62332 82.87807 0 0 0
242 -21.94422 -30.39928 83.21188 0 0 0
243 -22.47944 -31.07634 82.70679 0 0 0
244 -23.01467 -31.85230 83.04059 0 0 0
245 -23.54989 -32.52936 82.53550 0 0 0
246 -24.08512 -33.30532 82.86930 0 0 0
247 -24.62034 -33.98238 82.36421 0 0 0
248 -25.15556 -34.75834 82.69802 0 0 0
249 -25.69079 -35.43540 82.19292 0 0 0
250 -26.22601 -36.21136 82.52673 0 0 0
251 -26.76124 -36.88842 82.02164 0 0 0
252 -27.29646 -37.66437 82.35544 0 0 0
253 -27.83169 -38.34144 81.85035 0 0 0
254 -28.36691 -39.11739 82.18416 0 0 0
255 -28.90214 -39.79446 81.67906 0 0 0
256 -29.43736 -40.57041 82.01287 0 0 0
257 -29.97259 -41.24748 81.50778 0 0 0
258 -30.50781 -42.02343 81.84158 0 0 0
259 -31.04304 -42.70049 81.33649 0 0 0
260 -31.57826 -43.47645 81.67029 0 0 0
261 -32.11349 -44.15351 81.16520 0 0 0
262 -32.64871 -44.92947 81.49901 0 0 0
263 -33.18394 -45.60653 80.99391 0 0 0
264 -33.71916 -46.38249 81.32772 0 0 0
265 -34.25439 -47.05955 80.82263 0 0 0
266 -34.78961 -47.83551 81.15643 0 0 0
267 -35.32484 -48.51257 80.65134 0 0 0
268 -35.86006 -49.28853 80.98515 0 0 0
269 -36.39529 -49.96559 80.48005 0 0 0
270 -36.93051 -50.74154 80.81386 0 0 0
271 -37.46573 -51.41861 80.30877 0 0 0
272 -38.00096 -52.19456 80.64257 0 0 0
273 -38.53618 -52.87163 80.13748 0 0 0
274 -39.07141 -53.64758 80.47128 0 0 0
275 -39.60663 -54.32465 79.96619 0 0 0
276 -40.14186 -55.10060 80.30000 0 0 0
277 -40.67708 -55.77766 79.79490 0 0 0
278 -41.21231 -56.55362 80.12871 0 0 0
279 -41.74753 -57.23068 79.62362 0 0 0
280 -42.28276 -58.00664 79.95742 0 0 0
281 -42.81798 -58.68370 79.45233 0 0 0
282 -43.35321 -59.45966 79.78614 0 0 0
283 -43.88843 -60.13672 79.28104 0 0 0
284 -44.42366 -60.91268 79.61485 0 0 0
285 -44.95888 -61.58974 79.10976 0 0 0
286 -45.49411 -62.36570 79.44356 0 0 0
287 -46.02933 -63.04276 78.93847 0 0 0
288 -46.56456 -63.81871 79.27227 0 0 0
289 -47.09978 -64.49578 78.76718 0 0 0
290 -47.63501 -65.27173 79.10099 0 0 0
291 -48.17023 -65.94880 78.59589 0 0 0
292 -48.70546 -66.72475 78.92970 0 0 0
293 -49.24068 -67.40182 78.42461 0 0 0
294 -49.77590 -68.17777 78.75841 0 0 0
295 -50.31113 -68.85483 78.25332 0 0 0
296 -50.84635 -69.63079 78.58713 0 0 0
297 -51.38158 -70.30785 78.08203 0 0 0
298 -51.91680 -71.08381 78.41584 0 0 0
299 -52.45203 -71.76087 77.91075 0 0 0
300 -52.98725 -72.53683 78.24455 0 0 0
301 -53.52248 -73.21389 77.73946 0 0 0
302 -0.40439 0.07051 87.45135 0 0 0
303 -0.80877 0.20718 88.35567 0 0 0
304 -1.21316 1.05867 88.68948 0 0 0
305 -1.61754 1.19534 89.59380 0 0 0
306 -2.02193 2.04683 89.92760 0 0 0
307 -2.42631 2.18349 90.83192 0 0 0
308 -2.83070 3.03499 91.16573 0 0 0
309 -3.23508 3.17165 92.07005 0 0 0
310 -3.63947 4.02315 92.40386 0 0 0
311 -4.04385 4.15981 93.30818 0 0 0
312 -4.44824 5.01131 93.64199 0 0 0
313 -4.85262 5.14797 94.54631 0 0 0
314 -5.25701 5.99947 94.88011 0 0 0
315 -5.66139 6.13613 95.78443 0 0 0
316 -6.06578 6.98763 96.11824 0 0 0
317 -6.47016 7.12429 97.02256 0 0 0
318 -6.87455 7.97579 97.35637 0 0 0
319 -7.27893 8.11245 98.26069 0 0 0
320 -7.68332 8.96395 98.59450 0 0 0
321 -8.08770 9.10061 99.49882 0 0 0
322 -8.49209 9.95210 99.83262 0 0 0
323 -8.89647 10.08877 100.73694 0 0 0
324 -9.30086 10.94026 101.07075 0 0 0
325 -9.70524 11.07693 101.97507 0 0 0
326 -10.10963 11.92842 102.30888 0 0 0
327 -10.51401 12.06509 103.21320 0 0 0
328 -10.91840 12.91658 103.54701 0 0 0
329 -11.32278 13.05324 104.45133 0 0 0
330 -11.72717 13.90474 104.78513 0 0 0
331 -12.13155 14.04140 105.68946 0 0 0
332 -12.53594 14.89290 106.02326 0 0 0
333 -12.94032 15.02956 106.92758 0 0 0
334 -13.34471 15.88106 107.26139 0 0 0
335 -13.74909 16.01772 108.16571 0 0 0
336 -14.15348 16.86922 108.49952 0 0 0
337 -14.55786 17.00588 109.40384 0 0 0
338 -14.96225 17.85738 109.73765 0 0 0
339 -15.36663 17.99404 110.64197 0 0 0
340 -15.77102 18.84554 110.97577 0 0 0
341 -16.17540 18.98220 111.88009 0 0 0
342 -16.57979 19.83369 112.21390 0 0 0
343 -16.98417 19.97036 113.11822 0 0 0
344 -17.38856 20.82185 113.45203 0 0 0
345 -17.79294 20.95852 114.35635 0 0 0
346 -18.19733 21.81001 114.69016 0 0 0
347 -18.60171 21.94668 115.59448 0 0 0
348 -19.00610 22.79817 115.92828 0 0 0
349 -19.41048 22.93483 116.83260 0 0 0
350 -19.81487 23.78633 117.16641 0 0 0
351 -20.21925 23.92299 118.07073 0 0 0
352 -20.62364 24.77449 118.40454 0 0 0
353 -21.02802 24.91115 119.30886 0 0 0
354 -21.43241 25.76265 119.64267 0 0 0
355 -21.83679 25.89931 120.54699 0 0 0
356 -22.24118 26.75081 120.88079 0 0 0
357 -22.64556 26.88747 121.78511 0 0 0
358 -23.04995 27.73897 122.11892 0 0 0
359 -23.45433 27.87563 123.02324 0 0 0
360 -23.85872 28.72713 123.35705 0 0 0
361 -24.26310 28.86379 124.26137 0 0 0
362 -24.66749 29.71528 124.59518 0 0 0
363 -25.07187 29.85195 125.49950 0 0 0
364 -25.47626 30.70344 125.83330 0 0 0
365 -25.88064 30.84011 126.73762 0 0 0
366 -26.28503 31.69160 127.07143 0 0 0
367 -26.68941 31.82827 127.97575 0 0 0
368 -27.09380 32.67976 128.30956 0 0 0
369 -27.49818 32.81642 129.21388 0 0 0
370 -27.90257 33.66792 129.54769 0 0 0
371 -28.30695 33.80458 130.45201 0 0 0
372 -28.71134 34.65608 130.78581 0 0 0
373 -29.11572 34.79274 131.69013 0 0 0
374 -29.52011 35.64424 132.02394 0 0 0
375 -29.92449 35.78090 132.92826 0 0 0
376 -30.32888 36.63240 133.26207 0 0 0
377 -30.73326 36.76906 134.16639 0 0 0
378 -31.13765 37.62056 134.50020 0 0 0
379 -31.54203 37.75722 135.40452 0 0 0
380 -31.94642 38.60872 135.73832 0 0 0
381 -32.35080 38.74538 136.64265 0 0 0
382 -32.75519 39.59687 136.97645 0 0 0
383 -33.15957 39.73354 137.88077 0 0 0
384 -33.56396 40.58503 138.21458 0 0 0
385 -33.96834 40.72170 139.11890 0 0 0
386 -34.37273 41.57319 139.45271 0 0 0
387 -34.77711 41.70986 140.35703 0 0 0
388 -35.18150 42.56135 140.69083 0 0 0
389 -35.58588 42.69801 141.59516 0 0 0
390 -35.99027 43.54951 141.92896 0 0 0
391 -36.39465 43.68617 142.83328 0 0 0
392 -36.79904 44.53767 143.16709 0 0 0
393 -37.20342 44.67433 144.07141 0 0 0
394 -37.60781 45.52583 144.40522 0 0 0
395 -38.01219 45.66249 145.30954 0 0 0
396 -38.41658 46.51399 145.64335 0 0 0
397 -38.82096 46.65065 146.54767 0 0 0
398 -39.22535 47.50215 146.88147 0 0 0
399 -39.62973 47.63881 147.78579 0 0 0
400 -40.03412 48.49031 148.11960 0 0 0
401 -40.43850 48.62697 149.02392 0 0 0
ITEM: TIMESTEP
1000
ITEM: NUMBER OF ATOMS
401
ITEM: BOX BOUNDS pp pp pp
-1.0000000000000000e+03 1.0000000000000000e+03
-1.0000000000000000e+03 1.0000000000000000e+03
-1.0000000000000000e+03 1.0000000000000000e+03
ITEM: ATOMS id x y z ix iy iz
1 0.46272 1.20595 4.00680 0 0 0
2 0.72260 0.46451 4.63736 0 0 0
3 0.67771 0.31479 5.58835 0 0 0
4 0.28338 -0.34005 6.37751 0 0 0
5 0.39267 0.49679 6.90778 0 0 0
6 1.31056 0.46441 7.36309 0 0 0
7 0.75618 0.20670 8.08264 0 0 0
8 0.69656 -0.27592 8.89782 0 0 0
9 0.09827 0.42552 9.07700 0 0 0
10 0.45513 1.19393 9.59200 0 0 0
11 1.05658 0.61868 10.14768 0 0 0
12 1.22171 0.19673 10.93679 0 0 0
13 1.05055 -0.29896 11.79960 0 0 0
14 0.84424 0.52786 12.26033 0 0 0
15 0.38413 0.92372 13.05924 0 0 0
16 0.45422 1.60820 13.79492 0 0 0
17 0.60249 1.16042 14.77984 0 0 0
18 0.50915 1.20061 15.71235 0 0 0
19 0.45046 0.99504 16.68436 0 0 0
20 0.33216 1.24683 17.61032 0 0 0
21 0.45409 1.35216 18.56046 0 0 0
22 0.68709 1.48178 19.53503 0 0 0
23 1.15407 1.51179 20.34780 0 0 0
24 1.48689 0.95901 21.13969 0 0 0
25 1.32629 0.45860 22.07862 0 0 0
26 1.42678 0.87096 22.98954 0 0 0
27 1.53333 0.96171 23.96468 0 0 0
28 1.18056 1.07790 24.95693 0 0 0
29 0.75229 0.79421 25.82824 0 0 0
30 0.33949 0.11183 26.38798 0 0 0
31 -0.10353 -0.35476 27.17020 0 0 0
32 0.10588 -0.79747 28.07330 0 0 0
33 0.31311 -0.94001 29.02386 0 0 0
34 0.63787 -1.01350 29.95396 0 0 0
35 0.66460 -0.21231 30.48673 0 0 0
36 0.62069 -0.11775 31.47091 0 0 0
37 0.91595 -0.68171 32.16498 0 0 0
38 0.34682 -1.06747 32.95483 0 0 0
39 0.33998 -1.04477 33.89508 0 0 0
40 0.33839 -0.96277 34.83833 0 0 0
41 0.46869 -1.37009 35.73719 0 0 0
42 0.26107 -1.28230 36.68681 0 0 0
43 0.69283 -0.90463 37.52751 0 0 0
44 0.90470 -1.29074 38.41496 0 0 0
45 0.54555 -0.81024 39.16429 0 0 0
46 0.97234 -0.68813 40.10180 0 0 0
47 0.35626 -0.14273 40.70525 0 0 0
48 0.21788 -0.12275 41.72763 0 0 0
49 0.49574 0.13139 42.61927 0 0 0
50 0.00154 0.51109 43.43294 0 0 0
51 -0.25942 0.73466 44.33585 0 0 0
52 -0.35171 0.14131 45.14137 0 0 0
53 -0.21920 -0.56388 45.82159 0 0 0
54 -0.10588 -0.64036 46.77088 0 0 0
55 -0.31467 -0.57017 47.72017 0 0 0
56 -0.69196 -0.38620 48.54130 0 0 0
57 -0.93346 -0.89613 49.38405 0 0 0
58 -0.75108 -0.92106 50.43835 0 0 0
59 0.00494 -0.48729 51.04060 0 0 0
60 0.32633 0.39190 51.27993 0 0 0
61 0.75820 0.17461 52.12730 0 0 0
62 0.15429 -0.31289 52.81579 0 0 0
63 -0.68352 -0.64678 53.22795 0 0 0
64 -0.57724 -1.23455 53.97335 0 0 0
65 -0.60703 -1.40675 54.96159 0 0 0
66 -1.18200 -1.06530 55.63027 0 0 0
67 -1.44773 -0.80743 56.48162 0 0 0
68 -0.84614 -0.76903 57.20836 0 0 0
69 -0.93638 -0.25739 58.03650 0 0 0
70 -0.90979 -0.58456 58.97080 0 0 0
71 -1.36205 -0.83874 59.81657 0 0 0
72 -1.47926 -0.40754 60.68336 0 0 0
73 -1.35426 -0.06365 61.55808 0 0 0
74 -0.95230 -0.25533 62.51308 0 0 0
75 -1.34072 -0.42762 63.40088 0 0 0
76 -1.99909 -0.55534 64.13046 0 0 0
77 -2.10680 -0.45071 65.07721 0 0 0
78 -1.91774 -0.77735 65.96919 0 0 0
79 -1.74424 -0.51748 66.89089 0 0 0
80 -1.43772 -0.24647 67.91332 0 0 0
81 -1.89821 0.30572 68.55471 0 0 0
82 -2.15636 0.18075 69.45762 0 0 0
83 -1.81294 0.22739 70.55490 0 0 0
84 -1.62229 0.15195 71.53369 0 0 0
85 -2.01017 0.15525 72.39189 0 0 0
86 -1.81207 0.49042 73.20598 0 0 0
87 -1.39016 0.57800 74.07312 0 0 0
88 -1.12073 0.19208 75.09056 0 0 0
89 -0.73395 -0.18410 75.91549 0 0 0
90 -0.21775 0.13779 76.73619 0 0 0
91 0.16822 0.16027 77.68333 0 0 0
92 0.36086 0.56085 78.56576 0 0 0
93 0.23556 0.19072 79.46276 0 0 0
94 0.77521 -0.38826 80.06397 0 0 0
95 0.44095 -0.70519 80.89211 0 0 0
96 -0.14844 -0.74085 81.79113 0 0 0
97 0.07088 -0.83147 82.80789 0 0 0
98 0.49721 -0.73171 83.64753 0 0 0
99 0.90026 -0.71553 84.53931 0 0 0
100 0.91564 -0.97963 85.46518 0 0 0
101 1.45130 -1.14794 86.33294 0 0 0
102 2.44643 -1.22709 86.31707 0 0 0
103 3.42457 -1.38489 86.53945 0 0 0
104 4.12188 -0.78828 86.79932 0 0 0
105 5.12659 -0.51226 87.07703 0 0 0
106 6.08577 -0.47760 87.53336 0 0 0
107 6.98788 -0.74823 87.85376 0 0 0
108 7.52047 -1.56245 87.90202 0 0 0
109 8.38723 -1.35141 88.31558 0 0 0
110 9.30851 -1.67750 88.24182 0 0 0
111 10.25539 -1.49502 88.69921 0 0 0
112 11.08253 -1.85411 89.25608 0 0 0
113 11.93326 -2.16395 89.85216 0 0 0
114 12.92862 -1.92990 90.06908 0 0 0
115 13.61266 -2.42735 90.61258 0 0 0
116 14.58156 -2.65930 90.80848 0 0 0
117 15.44298 -3.12994 90.89723 0 0 0
118 16.42432 -2.97681 91.03229 0 0 0
119 17.38091 -3.05084 91.28893 0 0 0
120 18.33861 -3.08205 91.62919 0 0 0
121 19.32495 -2.84662 91.84302 0 0 0
122 20.04918 -2.92272 92.42563 0 0 0
123 20.85111 -3.33393 92.78882 0 0 0
124 21.81007 -3.34810 92.46879 0 0 0
125 22.76860 -3.80772 92.58019 0 0 0
126 23.56564 -3.84858 93.21776 0 0 0
127 24.22180 -4.43871 93.76308 0 0 0
128 25.07467 -4.69448 94.12864 0 0 0
129 26.00952 -5.01931 94.04668 0 0 0
130 26.82343 -5.65646 94.27349 0 0 0
131 27.79678 -5.76686 94.17635 0 0 0
132 28.77853 -5.66727 94.41843 0 0 0
133 29.73503 -6.05752 94.59941 0 0 0
134 30.45738 -6.20616 95.35297 0 0 0
135 31.42311 -6.39196 95.30988 0 0 0
136 32.35180 -6.77055 95.40216 0 0 0
137 33.25415 -6.98720 95.67561 0 0 0
138 34.17535 -6.61799 95.49968 0 0 0
139 35.17869 -6.81558 95.49717 0 0 0
140 36.13245 -7.19282 95.91776 0 0 0
141 37.07888 -7.52091 96.05288 0 0 0
142 37.89274 -8.11601 96.24469 0 0 0
143 38.71322 -8.67134 96.36539 0 0 0
144 39.55677 -9.13074 96.27396 0 0 0
145 40.26047 -9.43718 96.86205 0 0 0
146 41.14623 -9.77463 96.69871 0 0 0
147 42.10663 -10.12841 96.70491 0 0 0
148 43.11420 -9.96401 96.82135 0 0 0
149 43.76968 -10.58918 97.24378 0 0 0
150 44.83407 -10.52145 97.21571 0 0 0
151 45.72121 -10.87012 97.70229 0 0 0
152 46.50298 -11.55838 97.94898 0 0 0
153 47.49242 -11.55108 98.09005 0 0 0
154 48.39871 -11.85209 98.02623 0 0 0
155 49.41221 -11.62284 98.25959 0 0 0
156 50.16565 -11.42020 98.86680 0 0 0
157 50.96138 -11.55158 99.40410 0 0 0
158 51.71073 -12.23104 99.16223 0 0 0
159 52.65627 -12.47103 99.05472 0 0 0
160 53.53277 -12.87652 99.13730 0 0 0
161 54.10945 -12.77911 99.90931 0 0 0
162 54.99230 -12.83584 100.42168 0 0 0
163 55.82746 -13.13635 100.82708 0 0 0
164 56.86280 -13.40190 101.37785 0 0 0
165 57.85093 -13.47592 101.44706 0 0 0
166 58.74088 -13.00361 101.40732 0 0 0
167 59.67691 -13.02618 101.87964 0 0 0
168 60.71663 -13.29411 101.87543 0 0 0
169 61.71505 -13.38511 101.98344 0 0 0
170 62.52795 -13.82719 102.14446 0 0 0
171 63.44323 -14.13347 102.36023 0 0 0
172 64.42814 -14.38686 102.58150 0 0 0
173 65.49350 -14.29815 102.57643 0 0 0
174 66.34340 -14.74099 102.88559 0 0 0
175 67.26221 -14.54835 102.95223 0 0 0
176 67.88215 -15.24280 103.30785 0 0 0
177 68.85184 -15.34636 103.63899 0 0 0
178 69.79277 -15.45533 103.86525 0 0 0
179 70.70274 -15.99497 104.18832 0 0 0
180 71.69166 -16.45732 104.19276 0 0 0
181 72.32969 -17.04698 104.60125 0 0 0
182 72.86275 -17.87700 104.78077 0 0 0
183 73.74769 -18.32752 104.93889 0 0 0
184 74.70692 -18.24265 104.73858 0 0 0
185 75.69102 -18.48748 104.62140 0 0 0
186 75.47184 -18.90601 105.43994 0 0 0
187 76.05465 -18.65005 106.09255 0 0 0
188 76.87812 -18.56845 106.78528 0 0 0
189 77.75048 -18.38625 106.58536 0 0 0
190 78.57117 -18.61018 107.14811 0 0 0
191 78.75111 -19.41784 106.61605 0 0 0
192 79.66916 -19.57449 106.96952 0 0 0
193 80.58318 -19.46236 107.26259 0 0 0
194 81.34475 -19.92346 107.61448 0 0 0
195 82.22760 -19.62183 107.79525 0 0 0
196 83.17321 -19.70741 107.45059 0 0 0
197 83.11126 -20.52818 107.89551 0 0 0
198 83.35660 -21.40957 107.62882 0 0 0
199 84.27545 -21.50114 107.20722 0 0 0
200 84.52069 -22.43793 107.09219 0 0 0
201 84.60198 -23.42042 107.13571 0 0 0
202 0.69404 -1.79287 86.55396 0 0 0
203 0.32138 -2.66821 86.30824 0 0 0
204 -0.26144 -3.39765 85.89379 0 0 0
205 -1.07577 -3.85032 85.60901 0 0 0
206 -1.47360 -4.74515 85.70476 0 0 0
207 -2.00226 -5.49015 85.33260 0 0 0
208 -2.83001 -5.87925 85.08836 0 0 0
209 -3.50356 -6.63666 85.02116 0 0 0
210 -4.30324 -7.08416 85.10810 0 0 0
211 -4.97113 -7.67517 84.88550 0 0 0
212 -5.77574 -7.95557 84.45117 0 0 0
213 -6.42636 -8.72294 84.21866 0 0 0
214 -6.92944 -9.60988 84.23825 0 0 0
215 -7.48522 -10.46864 83.87153 0 0 0
216 -8.23163 -11.09068 83.63018 0 0 0
217 -8.80611 -11.67732 83.10573 0 0 0
218 -9.36252 -12.58075 82.91403 0 0 0
219 -9.87886 -13.51609 82.58991 0 0 0
220 -10.87609 -13.81376 82.57645 0 0 0
221 -11.58233 -14.51171 82.71580 0 0 0
222 -11.62293 -15.74307 82.66407 0 0 0
223 -11.48882 -16.73289 82.63063 0 0 0
224 -11.59573 -17.37628 81.88188 0 0 0
225 -12.28395 -17.95072 82.22603 0 0 0
226 -12.33981 -18.85805 82.07383 0 0 0
227 -13.01829 -19.63344 82.05845 0 0 0
228 -13.69866 -20.18769 81.73018 0 0 0
229 -14.26017 -20.94907 81.96768 0 0 0
230 -14.44825 -21.72579 82.44447 0 0 0
231 -14.96731 -22.48202 82.18545 0 0 0
232 -15.49535 -23.35173 81.89143 0 0 0
233 -16.15242 -24.07171 82.06042 0 0 0
234 -17.05749 -24.33096 81.86948 0 0 0
235 -17.31571 -25.28733 81.94197 0 0 0
236 -18.19938 -25.89339 82.17546 0 0 0
237 -18.33940 -26.81767 82.46400 0 0 0
238 -18.74753 -27.69521 82.71883 0 0 0
239 -19.58204 -28.29400 83.13314 0 0 0
240 -20.03367 -29.13470 83.14866 0 0 0
241 -20.57698 -30.01527 82.88729 0 0 0
242 -20.84443 -31.02533 82.76225 0 0 0
243 -21.09317 -32.00952 82.40381 0 0 0
244 -21.96481 -32.59360 82.30603 0 0 0
245 -22.47604 -33.33266 81.88462 0 0 0
246 -23.09316 -34.06934 81.64437 0 0 0
247 -23.65344 -34.74843 82.06928 0 0 0
248 -23.87797 -35.69700 82.25282 0 0 0
249 -24.78206 -35.82903 82.00947 0 0 0
250 -25.36084 -36.60262 81.94132 0 0 0
251 -25.68556 -37.37689 81.47160 0 0 0
252 -26.12560 -38.16489 81.06541 0 0 0
253 -26.45730 -39.04246 81.38425 0 0 0
254 -26.74070 -39.96839 81.42240 0 0 0
255 -27.48839 -40.53597 81.68920 0 0 0
256 -28.22754 -41.12718 81.49664 0 0 0
257 -29.00402 -41.48950 81.09046 0 0 0
258 -29.62908 -42.15474 80.94644 0 0 0
259 -30.51584 -42.54821 80.75806 0 0 0
260 -31.22080 -43.17539 80.44673 0 0 0
261 -32.11054 -43.41177 80.83545 0 0 0
262 -32.94791 -43.94607 80.69361 0 0 0
263 -33.56744 -44.43148 81.17521 0 0 0
264 -33.84501 -45.38610 80.69663 0 0 0
265 -33.84775 -46.25296 81.21921 0 0 0
266 -34.61055 -46.84367 81.36397 0 0 0
267 -34.96759 -47.53458 80.79787 0 0 0
268 -35.00306 -48.49339 80.93217 0 0 0
269 -35.70170 -49.21827 80.93095 0 0 0
270 -36.51719 -49.77131 80.77271 0 0 0
271 -37.40066 -50.39600 80.67717 0 0 0
272 -37.99106 -51.18711 80.52502 0 0 0
273 -38.28109 -52.12113 80.82448 0 0 0
274 -38.66890 -52.69225 81.45484 0 0 0
275 -39.30607 -53.28202 81.81746 0 0 0
276 -40.13444 -53.89458 81.65627 0 0 0
277 -40.32147 -54.76190 80.98988 0 0 0
278 -40.45890 -55.18001 80.12011 0 0 0
279 -40.62159 -56.17339 80.36497 0 0 0
280 -40.68863 -57.11802 79.97559 0 0 0
281 -41.16403 -58.05989 79.84089 0 0 0
282 -41.82894 -58.00930 80.49539 0 0 0
283 -42.23971 -59.02985 80.60633 0 0 0
284 -41.94550 -60.02477 80.72427 0 0 0
285 -42.58423 -60.53855 80.26715 0 0 0
286 -43.13167 -61.24218 79.85562 0 0 0
287 -43.07616 -62.05418 80.32368 0 0 0
288 -43.72881 -62.83121 80.13283 0 0 0
289 -44.66043 -62.83951 80.18631 0 0 0
290 -45.39294 -62.74660 79.59374 0 0 0
291 -46.02002 -63.51785 79.49678 0 0 0
292 -46.51834 -64.27374 79.06975 0 0 0
293 -46.97111 -64.95105 78.59146 0 0 0
294 -47.66075 -65.59470 78.72415 0 0 0
295 -47.93493 -66.50280 78.62036 0 0 0
296 -48.12445 -67.37585 78.45304 0 0 0
297 -47.81172 -68.30669 78.23955 0 0 0
298 -48.17971 -69.04160 78.86203 0 0 0
299 -48.92490 -69.70243 78.94044 0 0 0
300 -49.86195 -69.60068 78.78178 0 0 0
301 -49.51013 -70.38216 78.25375 0 0 0
302 0.79289 -0.80606 86.96762 0 0 0
303 0.31213 -0.17078 87.74205 0 0 0
304 0.04196 0.55601 88.47113 0 0 0
305 -0.49001 0.97030 89.24083 0 0 0
306 -0.89708 1.54021 89.90424 0 0 0
307 -0.75030 2.12944 90.73017 0 0 0
308 -0.75876 2.92660 91.34774 0 0 0
309 -1.19989 3.64326 91.99030 0 0 0
310 -1.90743 4.29799 92.24186 0 0 0
311 -2.44221 4.75093 92.89936 0 0 0
312 -2.91342 4.90042 93.72657 0 0 0
313 -3.65484 4.84240 94.34250 0 0 0
314 -4.22116 5.02799 95.14950 0 0 0
315 -4.67136 5.37548 95.91576 0 0 0
316 -5.40950 6.02543 96.35036 0 0 0
317 -5.68578 6.57861 97.10744 0 0 0
318 -5.84541 7.47772 97.55055 0 0 0
319 -6.56606 7.23205 98.16170 0 0 0
320 -7.08835 7.88674 98.68594 0 0 0
321 -7.21396 8.50839 99.42578 0 0 0
322 -7.79840 9.16317 100.01963 0 0 0
323 -8.56714 9.60683 100.35376 0 0 0
324 -8.99319 10.23572 101.10269 0 0 0
325 -9.37704 11.04324 101.61559 0 0 0
326 -9.85886 11.67198 102.35299 0 0 0
327 -9.90774 12.27203 103.32157 0 0 0
328 -10.24952 12.12036 104.23199 0 0 0
329 -10.37025 12.66845 105.13844 0 0 0
330 -10.63611 13.14824 105.97649 0 0 0
331 -11.44689 13.44011 106.47414 0 0 0
332 -12.09009 13.82474 107.09590 0 0 0
333 -12.42952 14.27148 107.96023 0 0 0
334 -12.90995 14.92744 108.60274 0 0 0
335 -13.76771 15.32130 109.14280 0 0 0
336 -14.21913 15.97668 109.81886 0 0 0
337 -14.81439 16.31931 110.46733 0 0 0
338 -15.77237 16.37348 110.57378 0 0 0
339 -16.42349 16.56399 111.36367 0 0 0
340 -16.54199 17.32669 111.90482 0 0 0
341 -16.98698 18.26120 112.17179 0 0 0
342 -17.22232 18.76847 112.98243 0 0 0
343 -17.48880 19.40441 113.67251 0 0 0
344 -17.72481 20.25179 114.05662 0 0 0
345 -18.46404 20.84161 114.34915 0 0 0
346 -19.20651 21.37636 114.65217 0 0 0
347 -19.75762 21.83792 115.31509 0 0 0
348 -20.46532 22.28939 115.91516 0 0 0
349 -20.49479 23.05447 116.48318 0 0 0
350 -20.98595 23.82443 116.70175 0 0 0
351 -21.55869 24.59007 116.84837 0 0 0
352 -22.05500 24.48977 117.59026 0 0 0
353 -22.51356 25.27172 117.96550 0 0 0
354 -22.98608 25.39888 118.75809 0 0 0
355 -23.34453 25.93583 119.54057 0 0 0
356 -23.81870 26.61995 120.20940 0 0 0
357 -23.90625 27.14768 121.10250 0 0 0
358 -24.20683 27.15514 122.03337 0 0 0
359 -24.70906 27.17006 122.86873 0 0 0
360 -24.53214 27.92701 123.46663 0 0 0
361 -25.23643 28.60396 123.85917 0 0 0
362 -25.22086 28.35365 124.79955 0 0 0
363 -25.75969 28.82540 125.55799 0 0 0
364 -25.66897 29.39183 126.30102 0 0 0
365 -26.43803 30.04708 126.38598 0 0 0
366 -26.73155 30.60269 127.10579 0 0 0
367 -26.72411 30.97876 128.01586 0 0 0
368 -27.36634 30.91684 128.70687 0 0 0
369 -27.61203 31.72423 129.27934 0 0 0
370 -28.17319 32.35985 129.79652 0 0 0
371 -28.65740 32.32375 130.62602 0 0 0
372 -28.67509 32.42773 131.60288 0 0 0
373 -28.94362 33.23881 132.04086 0 0 0
374 -29.76038 33.82440 132.01779 0 0 0
375 -29.54664 34.60298 132.60710 0 0 0
376 -30.01008 35.03911 133.33999 0 0 0
377 -30.17689 35.24635 134.26295 0 0 0
378 -30.51718 36.05214 134.62921 0 0 0
379 -30.55063 36.95784 135.04591 0 0 0
380 -30.90103 37.51842 135.70422 0 0 0
381 -31.09264 38.21214 136.44201 0 0 0
382 -31.64302 39.05245 136.54839 0 0 0
383 -31.67101 39.91699 137.14037 0 0 0
384 -31.98880 40.56973 137.77283 0 0 0
385 -32.03832 41.31365 138.38005 0 0 0
386 -32.31116 41.45228 139.31500 0 0 0
387 -32.98919 40.93642 139.75048 0 0 0
388 -33.98653 41.03574 139.92349 0 0 0
389 -34.35413 41.75926 140.47643 0 0 0
390 -34.39000 41.74951 141.44036 0 0 0