ITEM: TIMESTEP
0
ITEM: NUMBER OF ATOMS
201
ITEM: BOX BOUNDS pp pp pp
-1.0000000000000000e+03 1.0000000000000000e+03
-1.0000000000000000e+03 1.0000000000000000e+03
-1.0000000000000000e+03 1.0000000000000000e+03
ITEM: ATOMS id x y z ix iy iz
1 0.00000 0.00000 0.00000 0 0 0
2 0.00000 0.00000 1.00000 0 0 0
3 0.00000 -0.50000 1.86603 0 0 0
4 0.00000 0.00000 2.73205 0 0 0
5 0.00000 -0.50000 3.59808 0 0 0
6 0.00000 0.00000 4.46410 0 0 0
7 0.00000 -0.50000 5.33013 0 0 0
8 0.00000 0.00000 6.19615 0 0 0
9 0.00000 -0.50000 7.06218 0 0 0
10 0.00000 0.00000 7.92820 0 0 0
11 0.00000 -0.50000 8.79423 0 0 0
12 0.00000 0.00000 9.66025 0 0 0
13 0.00000 -0.50000 10.52628 0 0 0
14 0.00000 0.00000 11.39230 0 0 0
15 0.00000 -0.50000 12.25833 0 0 0
16 0.00000 0.00000 13.12436 0 0 0
17 0.00000 -0.50000 13.99038 0 0 0
18 0.00000 0.00000 14.85641 0 0 0
19 0.00000 -0.50000 15.72243 0 0 0
20 0.00000 0.00000 16.58846 0 0 0
21 0.00000 -0.50000 17.45448 0 0 0
22 0.00000 0.00000 18.32051 0 0 0
23 0.00000 -0.50000 19.18653 0 0 0
24 0.00000 0.00000 20.05256 0 0 0
25 0.00000 -0.50000 20.91858 0 0 0
26 0.00000 0.00000 21.78461 0 0 0
27 0.00000 -0.50000 22.65064 0 0 0
28 0.00000 0.00000 23.51666 0 0 0
29 0.00000 -0.50000 24.38269 0 0 0
30 0.00000 0.00000 25.24871 0 0 0
31 0.00000 -0.50000 26.11474 0 0 0
32 0.00000 0.00000 26.98076 0 0 0
33 0.00000 -0.50000 27.84679 0 0 0
34 0.00000 0.00000 28.71281 0 0 0
35 0.00000 -0.50000 29.57884 0 0 0
36 0.00000 0.00000 30.44486 0 0 0
37 0.00000 -0.50000 31.31089 0 0 0
38 0.00000 0.00000 32.17691 0 0 0
39 0.00000 -0.50000 33.04294 0 0 0
40 0.00000 0.00000 33.90897 0 0 0
41 0.00000 -0.50000 34.77499 0 0 0
42 0.31755 -1.44776 34.80515 0 0 0
43 0.63510 -2.28363 34.35739 0 0 0
44 0.95265 -3.08933 34.85739 0 0 0
45 1.27020 -3.92520 34.40963 0 0 0
46 1.58775 -4.73090 34.90963 0 0 0
47 1.90530 -5.56677 34.46187 0 0 0
48 2.22285 -6.37248 34.96187 0 0 0
49 2.54040 -7.20834 34.51410 0 0 0
50 2.85795 -8.01405 35.01410 0 0 0
51 3.17550 -8.84991 34.56634 0 0 0
52 3.49305 -9.65562 35.06634 0 0 0
53 3.81061 -10.49148 34.61858 0 0 0
54 4.12816 -11.29719 35.11858 0 0 0
55 4.44571 -12.13305 34.67082 0 0 0
56 4.76326 -12.93876 35.17082 0 0 0
57 5.08081 -13.77463 34.72306 0 0 0
58 5.39836 -14.58033 35.22306 0 0 0
59 5.71591 -15.41620 34.77530 0 0 0
60 6.03346 -16.22190 35.27530 0 0 0
61 6.35101 -17.05777 34.82753 0 0 0
62 6.66856 -17.86347 35.32753 0 0 0
63 6.98611 -18.69934 34.87977 0 0 0
64 7.30366 -19.50505 35.37977 0 0 0
65 7.62121 -20.34091 34.93201 0 0 0
66 7.93876 -21.14662 35.43201 0 0 0
67 8.25631 -21.98248 34.98425 0 0 0
68 8.57386 -22.78819 35.48425 0 0 0
69 8.89141 -23.62405 35.03649 0 0 0
70 9.20896 -24.42976 35.53649 0 0 0
71 9.52651 -25.26563 35.08873 0 0 0
72 9.84406 -26.07133 35.58873 0 0 0
73 10.16161 -26.90720 35.14096 0 0 0
74 10.47916 -27.71290 35.64096 0 0 0
75 10.79671 -28.54877 35.19320 0 0 0
76 11.11427 -29.35447 35.69320 0 0 0
77 11.43182 -30.19034 35.24544 0 0 0
78 11.74937 -30.99604 35.74544 0 0 0
79 12.06692 -31.83191 35.29768 0 0 0
80 12.38447 -32.63762 35.79768 0 0 0
81 12.70202 -33.47348 35.34992 0 0 0
82 -0.31755 -0.05224 35.61086 0 0 0
83 -0.63510 -0.08240 36.55862 0 0 0
84 -0.95265 0.72331 37.05862 0 0 0
85 -1.27020 0.69315 38.00638 0 0 0
86 -1.58775 1.49885 38.50638 0 0 0
87 -1.90530 1.46869 39.45414 0 0 0
88 -2.22285 2.27440 39.95414 0 0 0
89 -2.54040 2.24424 40.90190 0 0 0
90 -2.85795 3.04995 41.40190 0 0 0
91 -3.17550 3.01979 42.34966 0 0 0
92 -3.49305 3.82549 42.84966 0 0 0
93 -3.81061 3.79533 43.79743 0 0 0
94 -4.12816 4.60104 44.29743 0 0 0
95 -4.44571 4.57088 45.24519 0 0 0
96 -4.76326 5.37658 45.74519 0 0 0
97 -5.08081 5.34642 46.69295 0 0 0
98 -5.39836 6.15213 47.19295 0 0 0
99 -5.71591 6.12197 48.14071 0 0 0
100 -6.03346 6.92767 48.64071 0 0 0
101 -6.35101 6.89751 49.58847 0 0 0
102 -6.66856 7.70322 50.08847 0 0 0
103 -6.98611 7.67306 51.03623 0 0 0
104 -7.30366 8.47877 51.53623 0 0 0
105 -7.62121 8.44861 52.48400 0 0 0
106 -7.93876 9.25431 52.98400 0 0 0
107 -8.25631 9.22415 53.93176 0 0 0
108 -8.57386 10.02986 54.43176 0 0 0
109 -8.89141 9.99970 55.37952 0 0 0
110 -9.20896 10.80540 55.87952 0 0 0
111 -9.52651 10.77524 56.82728 0 0 0
112 -9.84406 11.58095 57.32728 0 0 0
113 -10.16161 11.55079 58.27504 0 0 0
114 -10.47916 12.35650 58.77504 0 0 0
115 -10.79671 12.32634 59.72280 0 0 0
116 -11.11427 13.13204 60.22280 0 0 0
117 -11.43182 13.10188 61.17057 0 0 0
118 -11.74937 13.90759 61.67057 0 0 0
119 -12.06692 13.87743 62.61833 0 0 0
120 -12.38447 14.68313 63.11833 0 0 0
121 -12.70202 14.65297 64.06609 0 0 0
122 -0.93035 -0.81755 34.59165 0 0 0
123 -1.86070 -1.00089 34.27410 0 0 0
124 -2.79105 -1.36756 34.27410 0 0 0
125 -3.72140 -1.55090 33.95655 0 0 0
126 -4.65174 -1.91758 33.95655 0 0 0
127 -5.58209 -2.10092 33.63900 0 0 0
128 -6.51244 -2.46759 33.63900 0 0 0
129 -7.44279 -2.65093 33.32145 0 0 0
130 -8.37314 -3.01760 33.32145 0 0 0
131 -9.30349 -3.20094 33.00390 0 0 0
132 -10.23384 -3.56762 33.00390 0 0 0
133 -11.16419 -3.75096 32.68635 0 0 0
134 -12.09453 -4.11763 32.68635 0 0 0
135 -13.02488 -4.30097 32.36880 0 0 0
136 -13.95523 -4.66764 32.36880 0 0 0
137 -14.88558 -4.85098 32.05125 0 0 0
138 -15.81593 -5.21766 32.05125 0 0 0
139 -16.74628 -5.40100 31.73370 0 0 0
140 -17.67663 -5.76767 31.73370 0 0 0
141 -18.60698 -5.95101 31.41615 0 0 0
142 -19.53733 -6.31769 31.41615 0 0 0
143 -20.46767 -6.50102 31.09860 0 0 0
144 -21.39802 -6.86770 31.09860 0 0 0
145 -22.32837 -7.05104 30.78105 0 0 0
146 -23.25872 -7.41771 30.78105 0 0 0
147 -24.18907 -7.60105 30.46350 0 0 0
148 -25.11942 -7.96773 30.46350 0 0 0
149 -26.04977 -8.15106 30.14595 0 0 0
150 -26.98012 -8.51774 30.14595 0 0 0
151 -27.91047 -8.70108 29.82840 0 0 0
152 -28.84081 -9.06775 29.82840 0 0 0
153 -29.77116 -9.25109 29.51085 0 0 0
154 -30.70151 -9.61777 29.51085 0 0 0
155 -31.63186 -9.80110 29.19330 0 0 0
156 -32.56221 -10.16778 29.19330 0 0 0
157 -33.49256 -10.35112 28.87575 0 0 0
158 -34.42291 -10.71779 28.87575 0 0 0
159 -35.35326 -10.90113 28.55819 0 0 0
160 -36.28360 -11.26781 28.55819 0 0 0
161 -37.21395 -11.45114 28.24064 0 0 0
162 0.93035 -0.18245 34.95833 0 0 0
163 1.86070 0.00089 35.27588 0 0 0
164 2.79105 0.36756 35.27588 0 0 0
165 3.72140 0.55090 35.59343 0 0 0
166 4.65174 0.91758 35.59343 0 0 0
167 5.58209 1.10092 35.91098 0 0 0
168 6.51244 1.46759 35.91098 0 0 0
169 7.44279 1.65093 36.22853 0 0 0
170 8.37314 2.01760 36.22853 0 0 0
171 9.30349 2.20094 36.54608 0 0 0
172 10.23384 2.56762 36.54608 0 0 0
173 11.16419 2.75096 36.86363 0 0 0
174 12.09453 3.11763 36.86363 0 0 0
175 13.02488 3.30097 37.18118 0 0 0
176 13.95523 3.66764 37.18118 0 0 0
177 14.88558 3.85098 37.49873 0 0 0
178 15.81593 4.21766 37.49873 0 0 0
179 16.74628 4.40100 37.81628 0 0 0
180 17.67663 4.76767 37.81628 0 0 0
181 18.60698 4.95101 38.13383 0 0 0
182 19.53733 5.31769 38.13383 0 0 0
183 20.46767 5.50102 38.45138 0 0 0
184 21.39802 5.86770 38.45138 0 0 0
185 22.32837 6.05104 38.76893 0 0 0
186 23.25872 6.41771 38.76893 0 0 0
187 24.18907 6.60105 39.08648 0 0 0
188 25.11942 6.96773 39.08648 0 0 0
189 26.04977 7.15106 39.40403 0 0 0
190 26.98012 7.51774 39.40403 0 0 0
191 27.91047 7.70108 39.72159 0 0 0
192 28.84081 8.06775 39.72159 0 0 0
193 29.77116 8.25109 40.03914 0 0 0
194 30.70151 8.61777 40.03914 0 0 0
195 31.63186 8.80110 40.35669 0 0 0
196 32.56221 9.16778 40.35669 0 0 0
197 33.49256 9.35112 40.67424 0 0 0
198 34.42291 9.71779 40.67424 0 0 0
199 35.35326 9.90113 40.99179 0 0 0
200 36.28360 10.26781 40.99179 0 0 0
201 37.21395 10.45114 41.30934 0 0 0
ITEM: TIMESTEP
1000
ITEM: NUMBER OF ATOMS
201
ITEM: BOX BOUNDS pp pp pp
-1.0000000000000000e+03 1.0000000000000000e+03
-1.0000000000000000e+03 1.0000000000000000e+03
-1.0000000000000000e+03 1.0000000000000000e+03
ITEM: ATOMS id x y z ix iy iz
1 -2.97165 -1.56476 3.91194 0 0 0
2 -3.00560 -0.90186 4.75944 0 0 0
3 -2.19527 -0.75442 5.32530 0 0 0
4 -1.90863 -0.11463 6.01392 0 0 0
5 -0.94393 -0.08788 6.38478 0 0 0
6 -0.99127 -0.58778 7.20735 0 0 0
7 -0.83100 -1.52573 7.47536 0 0 0
8 -0.91987 -1.08374 8.30759 0 0 0
9 -0.49282 -1.23317 9.20158 0 0 0
10 0.26140 -0.94698 9.78215 0 0 0
11 -0.28778 -0.46488 10.42803 0 0 0
12 0.42152 -0.45248 11.19184 0 0 0
13 1.32965 -0.55357 11.69311 0 0 0
14 1.39098 -0.28474 12.60031 0 0 0
15 0.64473 0.12359 13.07703 0 0 0
16 0.48748 0.76142 13.82211 0 0 0
17 -0.04598 0.19716 14.40519 0 0 0
18 -0.78564 -0.07320 14.95323 0 0 0
19 -0.32620 0.07484 15.97647 0 0 0
20 -0.79716 -0.16919 16.76416 0 0 0
21 -1.15654 0.06959 17.71782 0 0 0
22 -1.58247 0.41031 18.50176 0 0 0
23 -0.99056 0.57229 19.29013 0 0 0
24 -0.52187 0.57097 20.19466 0 0 0
25 -0.28474 1.21296 20.82732 0 0 0
26 -0.82788 0.78294 21.50289 0 0 0
27 -0.26134 0.73268 22.23172 0 0 0
28 -0.29068 0.85672 23.23758 0 0 0
29 0.34354 0.97057 24.01229 0 0 0
30 0.83418 0.79267 24.88995 0 0 0
31 0.45718 0.62166 25.76723 0 0 0
32 0.43031 0.48941 26.72282 0 0 0
33 0.66661 0.16246 27.64860 0 0 0
34 0.49710 -0.18179 28.55911 0 0 0
35 -0.16600 -0.14987 29.31454 0 0 0
36 -0.67261 0.25151 30.15772 0 0 0
37 -0.99438 0.12736 31.10913 0 0 0
38 -0.87655 -0.41028 31.91286 0 0 0
39 -1.07876 -0.34709 32.88451 0 0 0
40 -0.69515 -0.76739 33.76568 0 0 0
41 -0.52117 -1.20885 34.57927 0 0 0
42 0.07625 -1.94267 34.88872 0 0 0
43 0.59276 -2.73627 35.38893 0 0 0
44 0.70563 -3.44453 36.08504 0 0 0
45 1.14742 -4.36920 36.05207 0 0 0
46 1.43249 -5.25840 35.65246 0 0 0
47 1.32026 -6.09491 35.17516 0 0 0
48 1.88675 -6.82993 35.54552 0 0 0
49 2.28081 -7.75150 35.44445 0 0 0
50 3.01079 -8.13390 34.87887 0 0 0
51 3.20078 -9.13698 34.87797 0 0 0
52 2.82845 -10.05203 35.26018 0 0 0
53 3.14550 -10.91645 34.91069 0 0 0
54 3.56475 -11.75039 34.64690 0 0 0
55 3.64102 -12.64356 34.24836 0 0 0
56 3.57403 -13.55525 34.17419 0 0 0
57 4.19850 -14.13167 33.71391 0 0 0
58 4.77760 -14.91303 33.54240 0 0 0
59 4.78714 -15.64577 34.21470 0 0 0
60 5.48068 -16.29202 34.12305 0 0 0
61 6.20931 -16.87650 34.28544 0 0 0
62 6.24533 -17.83100 34.70505 0 0 0
63 6.78860 -18.72262 34.94791 0 0 0
64 6.88652 -19.66081 35.10179 0 0 0
65 7.61813 -20.26792 35.07802 0 0 0
66 7.70332 -20.92817 35.71310 0 0 0
67 7.43039 -21.69198 36.21748 0 0 0
68 7.60178 -22.61733 36.62739 0 0 0
69 8.23123 -23.42179 36.37259 0 0 0
70 8.67830 -24.33377 36.48106 0 0 0
71 9.47999 -24.87159 36.17806 0 0 0
72 9.89585 -25.76496 35.85159 0 0 0
73 9.79002 -26.54739 36.59679 0 0 0
74 9.57669 -27.50954 36.26197 0 0 0
75 10.26634 -28.04714 35.87243 0 0 0
76 11.11343 -28.43091 35.64293 0 0 0
77 11.65600 -28.29573 34.87756 0 0 0
78 12.16148 -28.61119 35.65081 0 0 0
79 12.46614 -29.47606 35.82243 0 0 0
80 12.58630 -30.19427 36.43100 0 0 0
81 13.46141 -29.75581 36.26697 0 0 0
82 -0.90326 -0.46128 35.08582 0 0 0
83 -1.25844 0.13768 35.69780 0 0 0
84 -2.08889 0.21934 36.38421 0 0 0
85 -2.39797 0.66403 37.26169 0 0 0
86 -3.26759 0.82080 37.84504 0 0 0
87 -3.17604 1.44127 38.76874 0 0 0
88 -3.21218 2.01692 39.59938 0 0 0
89 -3.13373 1.81251 40.49289 0 0 0
90 -2.75446 2.26271 41.22527 0 0 0
91 -2.88459 3.09439 41.80191 0 0 0
92 -3.13015 4.07485 41.87190 0 0 0
93 -3.00593 4.00243 42.89002 0 0 0
94 -3.65335 4.04975 43.74910 0 0 0
95 -3.77443 4.87564 44.34936 0 0 0
96 -3.80983 5.59210 45.10382 0 0 0
97 -4.73826 5.41090 45.57439 0 0 0
98 -5.44422 5.80662 46.12437 0 0 0
99 -6.13782 6.32696 46.57700 0 0 0
100 -6.26602 7.00846 47.40695 0 0 0
101 -6.61939 7.29746 48.26848 0 0 0
102 -6.40853 7.37658 49.23870 0 0 0
103 -6.76376 7.73991 50.00433 0 0 0
104 -7.27390 8.22734 50.64560 0 0 0
105 -7.86061 9.04830 51.10659 0 0 0
106 -7.95129 9.70654 51.80836 0 0 0
107 -8.74098 10.08195 52.40431 0 0 0
108 -9.08764 10.66087 53.16027 0 0 0
109 -9.57260 11.09982 53.93679 0 0 0
110 -10.16420 11.69819 54.18654 0 0 0
111 -10.77947 12.38154 53.97394 0 0 0
112 -10.99451 12.46344 55.02212 0 0 0
113 -10.92535 11.89279 55.77091 0 0 0
114 -10.61684 12.80660 55.93697 0 0 0
115 -11.33001 13.38098 55.98484 0 0 0
116 -11.49916 13.76811 56.89274 0 0 0
117 -11.81574 13.45317 57.75176 0 0 0
118 -11.31622 13.45514 58.64582 0 0 0
119 -12.03269 13.25613 59.21836 0 0 0
120 -12.74812 13.40852 59.80561 0 0 0
121 -12.54949 14.31153 60.06527 0 0 0
122 -1.34601 -1.62804 34.44382 0 0 0
123 -2.05738 -2.23828 34.21936 0 0 0
124 -2.57506 -2.87644 33.61615 0 0 0
125 -3.37104 -2.52775 33.09107 0 0 0
126 -4.34133 -2.45288 32.89663 0 0 0
127 -5.18783 -2.60299 32.39204 0 0 0
128 -6.13876 -2.42043 32.16210 0 0 0
129 -7.07566 -2.78473 32.29812 0 0 0
130 -7.73380 -3.40645 31.91190 0 0 0
131 -8.59002 -3.77997 32.09192 0 0 0
132 -9.57430 -3.62783 32.19047 0 0 0
133 -10.34425 -3.98149 32.50072 0 0 0
134 -11.31083 -4.35155 32.61020 0 0 0
135 -12.26998 -4.27169 32.56423 0 0 0
136 -13.15614 -4.69666 32.81879 0 0 0
137 -13.92950 -4.17584 33.14666 0 0 0
138 -14.82570 -4.61286 33.00694 0 0 0
139 -15.72931 -4.47901 32.55048 0 0 0
140 -16.51725 -4.96863 32.17067 0 0 0
141 -17.12266 -5.72772 32.29678 0 0 0
142 -18.10745 -5.50159 32.29938 0 0 0
143 -19.08549 -5.50578 32.42031 0 0 0
144 -19.32698 -6.36195 32.10332 0 0 0
145 -20.03110 -6.58220 32.78513 0 0 0
146 -20.97858 -6.79424 32.95309 0 0 0
147 -21.82322 -6.18335 32.80884 0 0 0
148 -22.76260 -6.37554 33.16139 0 0 0
149 -23.71043 -6.68499 33.02932 0 0 0
150 -24.20735 -7.29678 32.52168 0 0 0
151 -24.87115 -7.35030 31.77198 0 0 0
152 -25.79108 -7.17469 31.34006 0 0 0
153 -26.76014 -7.42895 31.43630 0 0 0
154 -27.75744 -7.29937 31.62439 0 0 0
155 -28.28553 -7.80829 30.92587 0 0 0
156 -29.05922 -8.30943 31.21731 0 0 0
157 -29.82918 -8.65313 30.72157 0 0 0
158 -30.50151 -8.18632 30.06067 0 0 0
159 -30.47067 -7.12368 30.24422 0 0 0
160 -30.71395 -6.14442 30.11544 0 0 0
161 -31.66070 -6.35950 30.28960 0 0 0
162 0.33581 -0.74301 34.78628 0 0 0
163 1.29396 -0.62904 34.61239 0 0 0
164 1.89269 -0.13724 35.23659 0 0 0
165 2.80379 0.09940 34.95803 0 0 0
166 3.62280 0.34107 35.31020 0 0 0
167 4.26299 1.00660 35.60212 0 0 0
168 5.20038 1.56566 35.82728 0 0 0
169 6.09421 2.04755 35.38961 0 0 0
170 6.99649 2.15810 35.51991 0 0 0
171 7.74164 2.75725 35.34826 0 0 0
172 8.59952 3.08546 35.41942 0 0 0
173 9.48924 3.44561 35.33985 0 0 0
174 9.99200 3.78796 36.16065 0 0 0
175 10.83093 4.17561 35.89332 0 0 0
176 11.63820 4.33878 36.40061 0 0 0
177 12.54280 4.77452 36.66654 0 0 0
178 13.25225 5.49320 36.54389 0 0 0
179 14.07337 5.13960 36.95980 0 0 0
180 15.03505 5.05471 36.91369 0 0 0
181 15.99331 5.20430 36.70202 0 0 0
182 16.94106 5.21527 37.09531 0 0 0
183 17.86066 5.53026 36.85185 0 0 0
184 18.75008 5.93058 36.93162 0 0 0
185 19.39871 6.67482 36.84219 0 0 0
186 19.99720 6.68070 37.58147 0 0 0
187 20.40262 6.89649 38.43975 0 0 0
188 21.26603 7.26572 38.81133 0 0 0
189 22.15994 7.11712 39.04850 0 0 0
190 22.92537 6.61569 39.41818 0 0 0
191 23.91497 6.60895 39.47859 0 0 0
192 24.61754 7.09454 40.08666 0 0 0
193 25.07233 7.38402 40.97344 0 0 0
194 25.94500 7.22057 41.43084 0 0 0
195 26.98995 7.18245 41.25506 0 0 0
196 27.93407 7.53522 41.33607 0 0 0
197 28.67023 7.46479 41.91132 0 0 0
198 29.27791 6.71495 42.27677 0 0 0
199 30.07122 7.08926 41.88610 0 0 0
200 30.12195 7.10695 42.82681 0 0 0
201 30.59263 7.87626 43.22262 0 0 0
ITEM: TIMESTEP
2000
ITEM: NUMBER OF ATOMS
201
ITEM: BOX BOUNDS pp pp pp
-1.0000000000000000e+03 1.0000000000000000e+03
-1.0000000000000000e+03 1.0000000000000000e+03
-1.0000000000000000e+03 1.0000000000000000e+03
ITEM: ATOMS id x y z ix iy iz
1 -3.79532 -0.41581 6.12907 0 0 0
2 -3.72866 -0.94776 6.92831 0 0 0
3 -3.16172 -0.75935 7.62928 0 0 0
4 -2.31171 -0.64175 7.94327 0 0 0
5 -1.91366 0.24761 8.39203 0 0 0
6 -1.80206 -0.60382 8.94236 0 0 0
7 -1.11752 -0.59778 9.67028 0 0 0
8 -0.40498 -1.06714 10.21625 0 0 0
9 -0.08927 -1.30318 11.14242 0 0 0
10 -0.85258 -1.21633 11.80912 0 0 0
11 -1.27978 -0.39591 12.02579 0 0 0
12 -1.04879 -0.67255 13.01312 0 0 0
13 -0.91158 -0.48098 13.95348 0 0 0
14 -1.32265 -0.48707 14.81632 0 0 0
15 -1.81531 -0.46971 15.70104 0 0 0
16 -1.29140 -0.23104 16.52267 0 0 0
17 -1.14758 0.37017 17.19293 0 0 0
18 -0.24124 0.51189 17.62686 0 0 0
19 -0.77956 -0.22129 17.95674 0 0 0
20 -1.35183 -0.84724 18.55267 0 0 0
21 -1.59972 -0.60585 19.44314 0 0 0
22 -2.05276 -0.34351 20.29086 0 0 0
23 -1.81299 -0.56895 21.23476 0 0 0
24 -1.58919 -0.21486 22.08875 0 0 0
25 -1.83019 -0.17145 23.01741 0 0 0
26 -1.89419 -0.96656 23.56817 0 0 0
27 -1.89568 -0.15401 24.09211 0 0 0
28 -1.65063 -0.33300 25.06457 0 0 0
29 -1.27527 0.43285 25.52899 0 0 0
30 -0.76933 1.00187 26.20193 0 0 0
31 -0.38915 0.79483 27.01854 0 0 0
32 -0.52599 -0.04528 27.70664 0 0 0
33 0.31780 -0.52252 27.69141 0 0 0
34 0.79486 -0.65979 28.54423 0 0 0
35 0.47742 -0.95307 29.37179 0 0 0
36 0.87617 -0.84981 30.41048 0 0 0
37 0.58854 -1.51977 31.11929 0 0 0
38 0.78576 -1.62116 32.09767 0 0 0
39 0.98882 -1.51553 32.98970 0 0 0
40 0.22784 -1.21580 33.49334 0 0 0
41 0.12257 -1.06072 34.43777 0 0 0
42 1.10103 -1.46918 34.22441 0 0 0
43 1.08670 -2.46589 34.01913 0 0 0
44 1.75964 -3.05413 33.66403 0 0 0
45 2.55092 -3.61238 33.96279 0 0 0
46 2.83142 -4.51854 33.81040 0 0 0
47 3.22288 -5.41419 33.88015 0 0 0
48 3.37564 -6.15149 34.46962 0 0 0
49 3.77250 -6.82810 33.85425 0 0 0
50 3.84939 -7.90037 33.95835 0 0 0
51 4.08838 -8.85469 34.34877 0 0 0
52 4.49813 -9.65967 34.13219 0 0 0
53 4.50400 -10.62499 33.82700 0 0 0
54 5.21732 -11.29597 34.07455 0 0 0
55 5.02234 -12.16585 34.44888 0 0 0
56 5.25472 -13.10340 34.41359 0 0 0
57 5.13597 -14.13538 34.72423 0 0 0
58 5.42707 -15.04637 34.76028 0 0 0
59 4.62304 -15.14159 35.31911 0 0 0
60 4.21828 -15.98390 35.66142 0 0 0
61 3.65642 -16.78540 35.86996 0 0 0
62 4.18206 -17.55069 36.16879 0 0 0
63 4.75157 -17.99282 35.56126 0 0 0
64 4.93814 -18.51673 36.42360 0 0 0
65 5.48393 -19.05448 37.03939 0 0 0
66 6.45109 -19.54280 37.34444 0 0 0
67 7.23130 -20.05920 37.45212 0 0 0
68 7.92569 -20.34570 36.84004 0 0 0
69 8.14199 -21.30701 36.76735 0 0 0
70 8.26104 -22.27574 36.47916 0 0 0
71 7.53142 -23.02005 36.58527 0 0 0
72 7.78811 -23.76409 37.13743 0 0 0
73 8.25136 -24.63294 37.48565 0 0 0
74 8.68893 -25.10186 36.66956 0 0 0
75 9.10607 -25.84791 37.04308 0 0 0
76 10.10240 -26.05640 37.08572 0 0 0
77 9.69560 -26.89459 37.01369 0 0 0
78 10.01043 -27.69974 36.62578 0 0 0
79 10.06962 -27.70994 35.59483 0 0 0
80 10.25705 -28.60587 35.92116 0 0 0
81 11.23482 -28.94268 36.09539 0 0 0
82 0.10941 -1.42081 35.34841 0 0 0
83 -0.06358 -1.68949 36.26495 0 0 0
84 -0.37218 -1.40184 37.15708 0 0 0
85 -1.13041 -1.44508 37.73882 0 0 0
86 -1.62878 -0.81095 38.29532 0 0 0
87 -2.22085 -0.08816 38.64855 0 0 0
88 -2.10051 0.68382 39.40761 0 0 0
89 -2.31182 1.35440 40.18783 0 0 0
90 -2.27997 1.10098 41.16002 0 0 0
91 -2.89817 1.40118 41.84868 0 0 0
92 -3.26773 1.76231 42.65919 0 0 0
93 -3.26823 2.47002 43.40299 0 0 0
94 -3.59468 2.67453 44.42214 0 0 0
95 -3.88619 2.49252 45.32520 0 0 0
96 -3.96078 3.45305 45.65816 0 0 0
97 -3.88928 4.38718 45.38195 0 0 0
98 -4.36051 5.17540 45.71401 0 0 0
99 -4.63311 6.18760 45.85342 0 0 0
100 -5.09593 7.04345 45.87783 0 0 0
101 -5.04314 7.68844 46.61266 0 0 0
102 -5.40071 7.69406 47.52699 0 0 0
103 -6.01510 7.93959 48.24701 0 0 0
104 -6.66305 7.86278 48.90023 0 0 0
105 -7.22202 7.64065 49.74145 0 0 0
106 -7.10960 8.50670 50.12907 0 0 0
107 -7.26827 9.21606 50.80144 0 0 0
108 -7.57411 9.34713 51.75295 0 0 0
109 -7.92136 9.71751 52.65163 0 0 0
110 -8.06602 10.25812 53.52623 0 0 0
111 -8.65057 11.00603 53.52382 0 0 0
112 -9.31721 11.17620 54.23629 0 0 0
113 -9.85522 11.76432 54.85965 0 0 0
114 -10.19258 12.72814 54.98904 0 0 0
115 -10.07227 13.66142 54.81542 0 0 0
116 -9.85001 14.45328 55.41297 0 0 0
117 -10.13627 15.13397 56.06892 0 0 0
118 -11.07582 15.28502 56.32540 0 0 0
119 -11.38500 16.21031 56.44534 0 0 0
120 -11.32316 15.97869 57.48674 0 0 0
121 -11.72170 16.19522 58.35265 0 0 0
122 -0.79987 -1.50727 34.34617 0 0 0
123 -1.74227 -1.36571 34.19457 0 0 0
124 -2.60074 -0.95210 34.09378 0 0 0
125 -3.32074 -1.56474 34.22313 0 0 0
126 -3.92000 -2.18116 33.79550 0 0 0
127 -4.70588 -2.74001 33.80511 0 0 0
128 -5.35164 -3.48498 33.82817 0 0 0
129 -5.61193 -4.44770 33.70428 0 0 0
130 -6.48051 -4.44041 33.13131 0 0 0
131 -7.45358 -4.28087 33.08321 0 0 0
132 -8.01913 -3.53162 32.81387 0 0 0
133 -8.94744 -3.10584 33.01399 0 0 0
134 -9.57203 -3.92214 33.10225 0 0 0
135 -10.40175 -3.28826 33.09328 0 0 0
136 -11.27906 -3.10617 32.65727 0 0 0
137 -12.13482 -3.43974 32.37600 0 0 0
138 -13.01073 -3.79537 32.64570 0 0 0
139 -13.89578 -3.88356 32.62661 0 0 0
140 -14.69259 -3.91161 33.19036 0 0 0
141 -15.18696 -4.58066 33.70152 0 0 0
142 -16.14999 -4.38050 33.36062 0 0 0
143 -17.04277 -4.57952 33.04813 0 0 0
144 -18.01507 -4.46374 33.10672 0 0 0
145 -18.72945 -4.41254 32.33208 0 0 0
146 -19.36494 -5.09318 32.08182 0 0 0
147 -20.30968 -5.17901 32.24302 0 0 0
148 -21.08945 -5.84848 32.36970 0 0 0
149 -21.61911 -6.65568 32.24074 0 0 0
150 -21.76877 -7.48248 31.66480 0 0 0
151 -21.90656 -8.51207 31.35251 0 0 0
152 -22.42758 -9.14803 31.86084 0 0 0
153 -22.91117 -8.71294 32.60165 0 0 0
154 -23.61366 -8.22953 32.23468 0 0 0
155 -24.33784 -7.74663 31.78350 0 0 0
156 -24.80464 -7.23883 31.00158 0 0 0
157 -25.58912 -7.43141 30.44972 0 0 0
158 -25.71189 -8.21297 29.87199 0 0 0
159 -26.45651 -8.13320 29.29886 0 0 0
160 -26.73490 -7.49669 28.58282 0 0 0
161 -25.79311 -7.86525 28.31659 0 0 0
162 0.40915 -0.16349 34.75402 0 0 0
163 0.82638 0.63995 35.14023 0 0 0
164 1.64763 1.06419 35.36981 0 0 0
165 2.59422 1.16019 35.02146 0 0 0
166 3.50417 1.21774 35.21849 0 0 0
167 4.37308 0.81137 35.33081 0 0 0
168 5.16681 1.25877 35.72678 0 0 0
169 5.93824 1.72629 36.26210 0 0 0
170 6.84089 1.62524 36.55684 0 0 0
171 7.61429 1.22295 36.20811 0 0 0
172 7.88330 2.13578 36.08184 0 0 0
173 8.62230 2.88943 35.96945 0 0 0
174 9.42172 3.37745 35.66418 0 0 0
175 10.19245 3.96964 35.57103 0 0 0
176 10.94106 4.49707 36.06127 0 0 0
177 11.74636 5.02490 36.06388 0 0 0
178 12.41221 5.58328 35.66958 0 0 0
179 13.35944 5.67797 36.15445 0 0 0
180 14.19938 5.73709 36.62675 0 0 0
181 14.78094 6.46093 36.81995 0 0 0
182 15.56961 5.92230 36.83344 0 0 0
183 16.41136 5.71378 37.34779 0 0 0
184 17.28794 6.17441 37.50602 0 0 0
185 18.17389 6.58832 37.48403 0 0 0
186 18.90111 6.31743 38.03921 0 0 0
187 19.76980 5.85597 38.13705 0 0 0
188 20.76197 5.84648 38.12265 0 0 0
189 21.75393 6.12073 38.14978 0 0 0
190 22.73547 5.86274 38.23292 0 0 0
191 23.41224 5.29397 37.89708 0 0 0
192 24.31789 5.48028 37.67804 0 0 0
193 24.43163 5.32813 38.71028 0 0 0
194 24.43854 4.71892 39.49334 0 0 0
195 25.12455 5.28721 40.05761 0 0 0
196 25.91059 5.54123 40.61857 0 0 0
197 26.13040 6.07467 39.75081 0 0 0
198 27.11804 6.37019 39.73633 0 0 0
199 27.63313 6.60198 40.64471 0 0 0
200 28.13533 7.25653 41.11531 0 0 0
201 28.04843 8.16447 41.53385 0 0 0
ITEM: TIMESTEP
3000
ITEM: NUMBER OF ATOMS
201
ITEM: BOX BOUNDS pp pp pp
-1.0000000000000000e+03 1.0000000000000000e+03
-1.0000000000000000e+03 1.0000000000000000e+03
-1.0000000000000000e+03 1.0000000000000000e+03
ITEM: ATOMS id x y z ix iy iz
1 -0.98854 -1.93216 8.00107 0 0 0
2 -0.34175 -1.67993 7.29035 0 0 0
3 0.13212 -1.14801 7.97379 0 0 0
4 -0.02964 -1.07402 8.91642 0 0 0
5 -0.45996 -1.17476 9.76515 0 0 0
6 -0.89390 -1.82413 10.49912 0 0 0
7 -0.37451 -2.02491 11.29325 0 0 0
8 0.36321 -2.34324 11.97652 0 0 0
9 1.01601 -1.79823 12.49164 0 0 0
10 1.06945 -0.85282 12.85751 0 0 0
11 1.36978 -0.36473 13.55360 0 0 0
12 0.64003 0.06149 13.98696 0 0 0
13 -0.00045 -0.51080 14.39198 0 0 0
14 -0.53950 -1.25216 14.68206 0 0 0
15 -0.04345 -1.49097 15.41876 0 0 0
16 0.65255 -1.05175 16.08197 0 0 0
17 0.01035 -0.77918 16.88953 0 0 0
18 0.19468 0.10464 17.34090 0 0 0
19 -0.16495 0.08391 18.27191 0 0 0
20 0.10881 0.29469 19.21301 0 0 0
21 0.08176 0.41663 20.17370 0 0 0
22 0.28483 0.37121 21.07299 0 0 0
23 -0.26711 -0.02209 21.74715 0 0 0
24 -0.00234 -0.37570 22.64850 0 0 0
25 -0.00567 0.22593 23.47355 0 0 0
26 -0.11707 0.78614 24.20795 0 0 0
27 0.86135 0.79780 24.46525 0 0 0
28 1.12616 -0.25773 24.72933 0 0 0
29 0.58134 -0.17082 25.47382 0 0 0
30 0.80671 -0.73057 26.24640 0 0 0
31 1.15508 -0.90364 27.16774 0 0 0
32 0.86362 -0.98576 28.05759 0 0 0
33 0.44445 -0.97462 28.94820 0 0 0
34 0.11757 -1.84328 28.78610 0 0 0
35 0.46370 -1.92386 29.75121 0 0 0
36 0.57521 -2.30776 30.66212 0 0 0
37 0.23640 -2.30984 31.57874 0 0 0
38 0.32485 -1.97541 32.51214 0 0 0
39 0.42493 -1.29821 33.21945 0 0 0
40 0.07348 -0.68594 33.87154 0 0 0
41 0.13137 -0.61393 34.84875 0 0 0
42 0.33244 -1.53486 34.65210 0 0 0
43 0.32614 -2.56321 34.47088 0 0 0
44 1.05211 -3.04660 34.15290 0 0 0
45 1.92549 -3.27296 33.79011 0 0 0
46 2.30198 -3.83540 34.57446 0 0 0
47 3.25270 -3.83949 34.82540 0 0 0
48 3.91860 -4.48410 34.51523 0 0 0
49 4.76075 -4.94955 34.73934 0 0 0
50 5.25942 -5.81150 34.94874 0 0 0
51 5.56302 -6.56892 34.45676 0 0 0
52 5.64974 -7.52159 34.52283 0 0 0
53 5.66985 -8.47200 34.28236 0 0 0
54 5.33057 -9.12387 34.90178 0 0 0
55 5.72593 -9.97219 34.50422 0 0 0
56 6.49993 -10.67917 34.50396 0 0 0
57 6.62656 -11.57087 34.92257 0 0 0
58 6.62069 -12.51203 34.90640 0 0 0
59 6.67141 -13.44816 34.89310 0 0 0
60 6.71143 -14.41411 34.91647 0 0 0
61 6.20791 -15.23191 35.18954 0 0 0
62 6.80671 -15.85742 35.57799 0 0 0
63 7.05161 -15.69032 36.48752 0 0 0
64 6.90577 -16.28941 37.16945 0 0 0
65 7.85768 -16.18945 37.48221 0 0 0
66 8.60788 -16.66115 37.09035 0 0 0
67 8.69902 -17.65302 37.40457 0 0 0
68 9.57059 -18.17775 37.30226 0 0 0
69 9.31751 -18.71587 36.52437 0 0 0
70 9.62123 -19.77721 36.47844 0 0 0
71 9.25417 -20.68798 36.55717 0 0 0
72 8.67543 -21.44233 36.31199 0 0 0
73 8.65122 -22.45021 36.10457 0 0 0
74 7.98579 -22.55092 35.34333 0 0 0
75 7.92522 -23.05704 34.49042 0 0 0
76 8.14262 -24.04357 34.79487 0 0 0
77 7.20909 -24.22632 35.12566 0 0 0
78 7.19565 -25.21901 34.83186 0 0 0
79 8.06253 -25.08482 34.34137 0 0 0
80 7.84501 -25.13239 33.36595 0 0 0
81 7.99332 -25.80948 32.70684 0 0 0
82 -0.24492 -0.61756 35.74780 0 0 0
83 -0.85701 -0.69576 36.45467 0 0 0
84 -0.62058 -0.00151 37.17321 0 0 0
85 -1.42163 -0.12170 37.77812 0 0 0
86 -1.49968 -0.32709 38.71473 0 0 0
87 -1.73399 -0.02484 39.63342 0 0 0
88 -1.40967 0.39067 40.51438 0 0 0
89 -1.76111 0.56852 41.39126 0 0 0
90 -2.02700 1.00813 42.16964 0 0 0
91 -1.69935 1.55999 42.94593 0 0 0
92 -0.76883 1.73557 42.83281 0 0 0
93 -1.23053 2.28163 43.55975 0 0 0
94 -1.88643 2.79276 44.05596 0 0 0
95 -2.09412 3.20481 44.93657 0 0 0
96 -2.64751 2.79640 45.59866 0 0 0
97 -2.73745 3.63000 46.08913 0 0 0
98 -3.48131 3.67723 46.63480 0 0 0
99 -4.33078 4.00006 47.13451 0 0 0
100 -4.13608 5.04308 47.01909 0 0 0
101 -4.63739 5.36388 47.79214 0 0 0
102 -5.59722 5.26170 47.74176 0 0 0
103 -6.00976 6.14242 47.91107 0 0 0
104 -6.52611 6.47131 48.63121 0 0 0
105 -7.17385 7.14618 48.53351 0 0 0
106 -7.27854 8.09709 48.97899 0 0 0
107 -7.90693 8.80340 48.83521 0 0 0
108 -8.55241 9.31039 49.54539 0 0 0
109 -8.19600 9.34083 50.38231 0 0 0
110 -8.55560 9.02419 51.21354 0 0 0
111 -8.31065 9.32550 52.16523 0 0 0
112 -8.44570 9.64399 53.10164 0 0 0
113 -8.60445 9.29858 53.98118 0 0 0
114 -8.34516 9.32641 54.97304 0 0 0
115 -8.40056 10.32195 54.90543 0 0 0
116 -9.16358 10.90402 54.76625 0 0 0
117 -10.06358 10.61082 54.79838 0 0 0
118 -10.63615 11.36393 55.24646 0 0 0
119 -10.66349 12.09266 54.60811 0 0 0
120 -11.65301 12.14976 54.48125 0 0 0
121 -11.61085 12.77180 55.18251 0 0 0
122 -0.59704 -0.06958 34.54050 0 0 0
123 -1.56466 0.05932 34.52075 0 0 0
124 -2.53653 -0.04815 34.54198 0 0 0
125 -3.29889 -0.59039 34.78992 0 0 0
126 -4.26720 -0.58824 34.81693 0 0 0
127 -5.05994 -0.98432 34.50948 0 0 0
128 -5.50423 -1.18544 33.63812 0 0 0
129 -5.96857 -0.86112 32.87956 0 0 0
130 -6.60324 -1.43331 32.44798 0 0 0
131 -7.10270 -2.13031 31.94109 0 0 0
132 -7.68826 -2.83248 31.60958 0 0 0
133 -8.24977 -3.27851 31.04548 0 0 0
134 -8.92666 -3.57451 31.70440 0 0 0
135 -9.73433 -4.11227 31.74465 0 0 0
136 -10.61990 -3.82104 31.43035 0 0 0
137 -11.36166 -4.23649 30.86097 0 0 0
138 -12.18112 -4.09598 31.31916 0 0 0
139 -12.96984 -3.73201 31.89203 0 0 0
140 -13.36637 -3.33249 32.71054 0 0 0
141 -14.18628 -2.90160 32.39871 0 0 0
142 -14.95417 -3.48847 32.36225 0 0 0
143 -15.24445 -3.85241 33.24770 0 0 0
144 -15.77821 -4.63833 32.93102 0 0 0
145 -16.22010 -5.39819 33.35351 0 0 0
146 -17.00612 -5.42076 32.72969 0 0 0
147 -17.62637 -5.53131 33.45791 0 0 0
148 -18.49576 -5.63080 33.81669 0 0 0
149 -19.47656 -5.61254 33.75807 0 0 0
150 -20.44471 -5.57017 33.50520 0 0 0
151 -21.19813 -5.57899 34.04983 0 0 0
152 -21.79889 -6.28595 33.71358 0 0 0
153 -22.50170 -6.13925 32.90305 0 0 0
154 -22.93073 -5.39535 32.41275 0 0 0
155 -23.31550 -4.81868 31.70709 0 0 0
156 -24.07073 -5.26851 31.29812 0 0 0
157 -25.04649 -5.47666 31.18078 0 0 0
158 -25.71167 -5.21635 31.81289 0 0 0
159 -26.46753 -5.69156 32.16842 0 0 0
160 -26.46342 -6.65248 32.02117 0 0 0
161 -27.02919 -7.48965 31.81007 0 0 0
162 0.95359 -0.48025 35.33895 0 0 0
163 1.54051 -0.20882 34.53309 0 0 0
164 2.07992 0.55707 34.73744 0 0 0
165 2.87928 1.10046 34.66214 0 0 0
166 3.56811 1.80569 34.62827 0 0 0
167 4.18184 2.53100 34.61849 0 0 0
168 4.77565 2.25173 35.39569 0 0 0
169 4.98657 3.22920 35.62297 0 0 0
170 5.89311 3.40117 35.33026 0 0 0
171 6.77289 3.70156 34.87929 0 0 0
172 7.45138 4.37086 35.07584 0 0 0
173 8.45828 4.38040 35.26029 0 0 0
174 9.44467 4.28417 34.99251 0 0 0
175 10.41824 4.28123 35.10924 0 0 0
176 11.37181 4.21684 35.37901 0 0 0
177 12.17997 3.80707 35.75793 0 0 0
178 12.60808 4.62401 36.19577 0 0 0
179 13.36720 5.03590 36.63955 0 0 0
180 14.32566 5.05805 36.65379 0 0 0
181 15.12488 5.56331 36.78921 0 0 0
182 15.56425 5.85912 37.65981 0 0 0
183 15.70648 5.29079 38.45373 0 0 0
184 16.62964 4.98617 38.11487 0 0 0
185 17.48091 4.66207 38.45240 0 0 0
186 18.00043 4.43483 37.68065 0 0 0
187 18.34569 5.25767 37.31165 0 0 0
188 19.19297 5.79833 37.61415 0 0 0
189 19.94160 5.59713 38.35482 0 0 0
190 20.67687 5.32336 37.69937 0 0 0
191 20.98463 5.07169 38.57785 0 0 0
192 21.95334 4.91997 38.70585 0 0 0
193 22.33421 4.94227 39.57392 0 0 0
194 23.05216 4.53633 40.02730 0 0 0
195 23.68076 4.88408 40.73735 0 0 0
196 23.94415 5.26796 41.56786 0 0 0
197 24.74873 5.44185 42.08076 0 0 0
198 25.32841 5.74962 41.35868 0 0 0
199 26.30492 5.80578 41.21486 0 0 0
200 27.05142 6.16984 41.65732 0 0 0
201 27.87138 6.19701 42.13035 0 0 0
ITEM: TIMESTEP
4000
ITEM: NUMBER OF ATOMS
201