ITEM: TIMESTEP
0
ITEM: NUMBER OF ATOMS
97
ITEM: BOX BOUNDS pp pp pp
-1.0000000000000000e+03 1.0000000000000000e+03
-1.0000000000000000e+03 1.0000000000000000e+03
-1.0000000000000000e+03 1.0000000000000000e+03
ITEM: ATOMS id x y z ix iy iz
1 0.00000 0.00000 0.00000 0 0 0
2 0.00000 0.00000 1.00000 0 0 0
3 0.00000 -0.50000 1.86603 0 0 0
4 0.00000 0.00000 2.73205 0 0 0
5 0.00000 -0.50000 3.59808 0 0 0
6 0.00000 0.00000 4.46410 0 0 0
7 0.00000 -0.50000 5.33013 0 0 0
8 -0.43354 -1.39179 5.20070 0 0 0
9 -0.86708 -2.09939 4.64271 0 0 0
10 -1.30061 -2.93642 4.97652 0 0 0
11 -1.73415 -3.64402 4.41853 0 0 0
12 -2.16769 -4.48105 4.75234 0 0 0
13 -2.60123 -5.18865 4.19436 0 0 0
14 -0.50812 0.02069 6.01620 0 0 0
15 -1.01624 0.12859 6.87070 0 0 0
16 -1.52436 0.92256 7.20451 0 0 0
17 -2.03248 1.03046 8.05901 0 0 0
18 -2.54060 1.82443 8.39281 0 0 0
19 -3.04872 1.93233 9.24731 0 0 0
20 0.94166 -0.62961 5.64074 0 0 0
21 1.88332 -0.89717 5.84494 0 0 0
22 2.82497 -0.85411 6.17874 0 0 0
23 3.76663 -1.12166 6.38294 0 0 0
24 4.70829 -1.07861 6.71674 0 0 0
25 5.64995 -1.34616 6.92094 0 0 0
26 6.25301 -0.55627 6.80961 0 0 0
27 6.85607 0.18345 7.10815 0 0 0
28 7.45913 0.81185 6.61679 0 0 0
29 8.06219 1.55158 6.91533 0 0 0
30 8.66525 2.17998 6.42397 0 0 0
31 9.26832 2.91971 6.72251 0 0 0
32 5.93380 -2.07250 6.29495 0 0 0
33 6.21765 -2.38854 5.38966 0 0 0
34 6.50151 -3.33056 5.21072 0 0 0
35 6.78536 -3.64660 4.30543 0 0 0
36 7.06921 -4.58862 4.12648 0 0 0
37 7.35307 -4.90466 3.22119 0 0 0
38 5.70603 -1.67764 7.86273 0 0 0
39 5.76211 -2.43561 8.51261 0 0 0
40 5.81819 -2.25179 9.49396 0 0 0
41 5.87427 -3.00976 10.14384 0 0 0
42 5.93035 -2.82594 11.12520 0 0 0
43 5.98643 -3.58391 11.77507 0 0 0
44 5.06862 -3.81606 12.09715 0 0 0
45 4.15081 -4.17815 12.26001 0 0 0
46 3.23301 -4.21816 12.65502 0 0 0
47 2.31520 -4.58025 12.81787 0 0 0
48 1.39739 -4.62026 13.21288 0 0 0
49 0.47959 -4.98235 13.37573 0 0 0
50 6.55417 -3.31516 12.55317 0 0 0
51 7.12192 -3.47147 13.36140 0 0 0
52 7.68967 -2.84968 13.90088 0 0 0
53 8.25741 -3.00599 14.70911 0 0 0
54 8.82516 -2.38420 15.24859 0 0 0
55 9.39291 -2.54051 16.05682 0 0 0
56 6.39265 -4.37954 11.32569 0 0 0
57 6.79886 -4.84389 10.53869 0 0 0
58 7.20508 -5.75763 10.54733 0 0 0
59 7.61130 -6.22198 9.76033 0 0 0
60 8.01752 -7.13571 9.76898 0 0 0
61 8.42374 -7.60007 8.98198 0 0 0
62 9.35384 -7.26197 8.83842 0 0 0
63 10.28394 -6.89739 8.88315 0 0 0
64 11.21404 -6.67637 8.58977 0 0 0
65 12.14413 -6.31179 8.63450 0 0 0
66 13.07423 -6.09077 8.34113 0 0 0
67 14.00433 -5.72619 8.38585 0 0 0
68 7.87393 -7.41821 8.16673 0 0 0
69 7.32411 -6.85309 7.55163 0 0 0
70 6.77430 -7.10321 6.75468 0 0 0
71 6.22449 -6.53809 6.13958 0 0 0
72 5.67467 -6.78822 5.34262 0 0 0
73 5.12486 -6.22310 4.72753 0 0 0
74 8.45025 -8.58503 9.15267 0 0 0
75 8.47677 -9.52339 8.80801 0 0 0
76 8.50328 -10.29105 9.44832 0 0 0
77 8.52979 -11.22940 9.10366 0 0 0
78 8.55630 -11.99706 9.74396 0 0 0
79 8.58282 -12.93541 9.39930 0 0 0
80 7.71806 -13.14857 8.94460 0 0 0
81 6.85330 -13.10582 8.44424 0 0 0
82 5.98854 -13.51777 8.15703 0 0 0
83 5.12378 -13.47501 7.65667 0 0 0
84 4.25902 -13.88696 7.36946 0 0 0
85 3.39426 -13.84421 6.86910 0 0 0
86 8.72259 -13.56724 10.16171 0 0 0
87 8.86236 -14.49562 10.50606 0 0 0
88 9.00213 -14.66159 11.48224 0 0 0
89 9.14190 -15.58997 11.82659 0 0 0
90 9.28167 -15.75594 12.80276 0 0 0
91 9.42144 -16.68431 13.14712 0 0 0
92 9.33436 -13.03012 8.74645 0 0 0
93 10.08590 -12.78571 8.13371 0 0 0
94 10.83744 -13.19416 7.61567 0 0 0
95 11.58898 -12.94975 7.00293 0 0 0
96 12.34052 -13.35820 6.48490 0 0 0
97 13.09206 -13.11379 5.87215 0 0 0
ITEM: TIMESTEP
1000
ITEM: NUMBER OF ATOMS
97
ITEM: BOX BOUNDS pp pp pp
-1.0000000000000000e+03 1.0000000000000000e+03
-1.0000000000000000e+03 1.0000000000000000e+03
-1.0000000000000000e+03 1.0000000000000000e+03
ITEM: ATOMS id x y z ix iy iz
1 -1.17740 -1.94288 3.64906 0 0 0
2 -0.57833 -1.94858 4.32727 0 0 0
3 0.16748 -1.42606 4.81798 0 0 0
4 0.51094 -0.82383 4.01728 0 0 0
5 0.98794 -0.29332 4.75224 0 0 0
6 1.11097 -0.48926 5.69614 0 0 0
7 0.26368 -0.91240 6.09139 0 0 0
8 -0.13555 -1.74933 5.86247 0 0 0
9 -0.35410 -2.47869 5.22477 0 0 0
10 -0.66536 -2.81239 6.08869 0 0 0
11 -0.72373 -3.50427 5.36947 0 0 0
12 -1.18490 -3.66465 4.59330 0 0 0
13 -1.99106 -4.27782 4.42924 0 0 0
14 0.39346 -0.05860 6.49061 0 0 0
15 0.58981 0.61067 5.74185 0 0 0
16 -0.35575 0.27413 5.56018 0 0 0
17 -1.25209 -0.06403 5.61545 0 0 0
18 -1.92764 -0.25952 6.36178 0 0 0
19 -2.90779 -0.48301 6.09302 0 0 0
20 0.77853 -1.51443 6.64911 0 0 0
21 1.74631 -1.31086 6.46609 0 0 0
22 1.97551 -1.38863 5.51833 0 0 0
23 2.87735 -1.52536 5.88810 0 0 0
24 3.49321 -1.11427 6.52322 0 0 0
25 3.57760 -1.33921 7.45094 0 0 0
26 3.75786 -0.41030 7.71253 0 0 0
27 3.55893 0.49541 7.71493 0 0 0
28 3.19686 1.43005 7.62945 0 0 0
29 3.50276 2.34778 7.72148 0 0 0
30 4.44569 2.40764 7.58303 0 0 0
31 4.15348 1.48664 7.43117 0 0 0
32 3.88071 -2.17057 7.75662 0 0 0
33 3.67011 -2.89915 7.12159 0 0 0
34 4.26155 -3.28271 6.38782 0 0 0
35 4.50096 -2.47921 5.80957 0 0 0
36 5.17274 -2.03025 5.37864 0 0 0
37 4.71295 -1.56488 4.60756 0 0 0
38 3.24751 -1.37248 8.38435 0 0 0
39 2.81630 -1.95094 9.06886 0 0 0
40 3.46720 -2.30607 9.69524 0 0 0
41 3.27682 -3.12156 9.17239 0 0 0
42 3.74083 -3.43810 9.94074 0 0 0
43 4.32794 -4.19074 10.50324 0 0 0
44 4.12394 -3.97699 11.48294 0 0 0
45 4.74441 -3.37024 11.94516 0 0 0
46 4.54196 -3.62669 12.80932 0 0 0
47 3.84458 -2.92364 12.87991 0 0 0
48 3.19944 -3.03770 12.08946 0 0 0
49 2.67248 -3.11483 11.29700 0 0 0
50 4.96134 -4.90409 10.84829 0 0 0
51 5.51738 -4.18231 11.10987 0 0 0
52 5.99342 -3.96400 11.90002 0 0 0
53 6.46735 -4.68892 12.38724 0 0 0
54 7.02715 -4.85720 13.24526 0 0 0
55 8.04298 -4.76209 13.33501 0 0 0
56 4.24596 -4.83852 9.68973 0 0 0
57 5.00635 -5.50859 10.01496 0 0 0
58 5.75001 -6.00737 9.62027 0 0 0
59 6.57964 -6.40107 9.92146 0 0 0
60 6.68165 -7.27338 9.44391 0 0 0
61 6.93907 -8.00805 8.77645 0 0 0
62 7.82837 -7.63064 8.52908 0 0 0
63 8.65344 -7.66875 8.03169 0 0 0
64 8.28117 -6.95914 7.43493 0 0 0
65 9.20527 -6.84773 7.80043 0 0 0
66 9.42302 -6.07883 7.14752 0 0 0
67 8.87081 -6.06237 6.33557 0 0 0
68 6.50969 -7.46513 8.06113 0 0 0
69 6.23366 -6.70038 7.49720 0 0 0
70 6.07443 -6.59613 6.53696 0 0 0
71 5.45840 -7.28271 6.53864 0 0 0
72 5.52636 -8.27488 6.86015 0 0 0
73 5.44776 -8.37554 7.77846 0 0 0
74 6.40461 -8.68288 9.30160 0 0 0
75 6.57407 -9.61074 9.10241 0 0 0
76 6.67908 -9.77553 10.01543 0 0 0
77 7.32755 -10.51198 9.76778 0 0 0
78 7.98527 -11.08417 9.38944 0 0 0
79 8.44023 -11.98945 9.25694 0 0 0
80 8.13711 -12.73712 8.77717 0 0 0
81 7.48385 -13.34197 8.38683 0 0 0
82 6.84674 -13.58104 9.19997 0 0 0
83 5.91707 -13.58739 9.07376 0 0 0
84 5.11339 -14.23820 8.68073 0 0 0
85 4.48736 -14.51961 9.33256 0 0 0
86 8.56239 -12.71719 9.87062 0 0 0
87 7.60777 -12.69785 10.20443 0 0 0
88 7.04218 -11.89839 10.28780 0 0 0
89 7.77675 -11.58792 10.94194 0 0 0
90 7.52253 -12.11135 11.82331 0 0 0
91 7.03007 -12.86454 12.11489 0 0 0
92 8.73865 -11.70309 8.33405 0 0 0
93 9.37561 -11.65614 7.57863 0 0 0
94 9.86873 -12.40608 7.46431 0 0 0
95 10.20245 -13.15595 8.06626 0 0 0
96 11.17799 -13.56442 7.85388 0 0 0
97 12.18774 -13.49471 7.86226 0 0 0
ITEM: TIMESTEP
2000
ITEM: NUMBER OF ATOMS
97
ITEM: BOX BOUNDS pp pp pp
-1.0000000000000000e+03 1.0000000000000000e+03
-1.0000000000000000e+03 1.0000000000000000e+03
-1.0000000000000000e+03 1.0000000000000000e+03
ITEM: ATOMS id x y z ix iy iz
1 -0.76382 -0.95265 3.09707 0 0 0
2 -1.64153 -1.19745 3.52716 0 0 0
3 -0.99803 -1.95333 3.82787 0 0 0
4 -0.39630 -2.66286 3.65719 0 0 0
5 0.11166 -2.25864 4.45658 0 0 0
6 0.13342 -1.82783 5.31632 0 0 0
7 -0.45015 -1.71901 6.00825 0 0 0
8 -0.97447 -2.38361 6.42570 0 0 0
9 -1.82212 -2.73533 6.82164 0 0 0
10 -2.48640 -3.50619 6.76051 0 0 0
11 -1.75883 -4.02770 6.39991 0 0 0
12 -2.00976 -4.49588 7.20560 0 0 0
13 -2.11573 -4.37323 8.13528 0 0 0
14 -0.98691 -1.27534 5.28649 0 0 0
15 -0.89641 -0.36795 5.54553 0 0 0
16 -1.10130 0.14220 6.39148 0 0 0
17 -0.37277 0.19120 7.06047 0 0 0
18 -0.52319 -0.79666 7.52264 0 0 0
19 -1.09397 -0.09896 7.80183 0 0 0
20 0.16785 -1.50476 6.63804 0 0 0
21 0.70574 -1.06520 7.55898 0 0 0
22 1.58916 -0.57526 7.39217 0 0 0
23 2.43508 -0.01219 7.45334 0 0 0
24 3.14366 0.38835 8.02217 0 0 0
25 4.02361 0.25141 8.30101 0 0 0
26 3.70114 0.41981 9.24875 0 0 0
27 4.53178 0.56182 9.65356 0 0 0
28 4.77434 0.86742 8.76616 0 0 0
29 5.47525 1.02540 9.39410 0 0 0
30 5.88947 1.17279 10.25182 0 0 0
31 6.32935 1.31527 11.11196 0 0 0
32 4.47994 0.54467 7.49173 0 0 0
33 4.04260 0.64073 6.59399 0 0 0
34 4.14486 0.44497 5.62143 0 0 0
35 4.51629 0.06173 4.78061 0 0 0
36 4.29816 0.76284 4.08032 0 0 0
37 5.17302 0.78375 4.43970 0 0 0
38 3.56115 -0.52471 8.43407 0 0 0
39 3.99022 -1.32042 8.77582 0 0 0
40 4.01112 -2.19092 9.12045 0 0 0
41 4.29740 -2.21696 10.03808 0 0 0
42 5.19999 -2.51153 10.42611 0 0 0
43 4.76052 -3.32169 10.26721 0 0 0
44 4.57748 -3.61198 9.31425 0 0 0
45 3.69352 -3.57301 8.87944 0 0 0
46 2.79022 -3.52573 9.04668 0 0 0
47 2.21672 -2.73319 9.09701 0 0 0
48 2.23848 -2.74420 10.03836 0 0 0
49 2.62157 -1.82497 10.04825 0 0 0
50 4.39740 -4.21726 10.43591 0 0 0
51 5.21950 -4.28765 11.03264 0 0 0
52 5.99551 -4.20317 11.57982 0 0 0
53 6.11393 -4.50302 12.56679 0 0 0
54 5.95251 -4.53668 13.53977 0 0 0
55 6.48758 -4.55438 14.34276 0 0 0
56 5.58087 -3.34913 9.66782 0 0 0
57 6.40653 -3.32414 9.09569 0 0 0
58 6.93180 -4.12227 8.74018 0 0 0
59 6.75225 -5.07158 8.35165 0 0 0
60 6.56715 -5.81040 7.71895 0 0 0
61 6.88077 -6.75370 7.89825 0 0 0
62 6.81526 -6.78921 8.90235 0 0 0
63 7.75783 -7.06827 8.82890 0 0 0
64 8.70634 -6.73794 8.66848 0 0 0
65 8.67301 -5.74880 8.83019 0 0 0
66 8.83725 -4.69297 8.90231 0 0 0
67 9.44742 -4.08305 8.48770 0 0 0
68 6.08747 -7.48117 7.90752 0 0 0
69 6.06398 -8.24382 7.19809 0 0 0
70 5.70882 -8.19859 6.24323 0 0 0
71 5.16618 -7.42072 6.21970 0 0 0
72 5.03375 -7.32074 5.26243 0 0 0
73 4.95201 -8.38551 5.26160 0 0 0
74 7.08537 -7.76255 8.07410 0 0 0
75 7.21598 -8.63130 7.78466 0 0 0
76 7.97201 -8.99323 8.22865 0 0 0
77 8.06025 -9.92706 8.03300 0 0 0
78 8.28551 -10.78921 8.43484 0 0 0
79 8.38722 -11.52880 8.98602 0 0 0
80 7.48055 -11.67953 8.74262 0 0 0
81 6.84911 -11.93678 8.09002 0 0 0
82 6.77889 -11.72668 7.15968 0 0 0
83 7.36275 -11.53287 6.45878 0 0 0
84 7.92720 -11.88617 7.13611 0 0 0
85 8.00818 -12.80377 7.38006 0 0 0
86 7.98619 -12.15854 9.63308 0 0 0
87 7.85918 -13.19514 9.84637 0 0 0
88 8.68217 -13.78433 9.90222 0 0 0
89 8.85732 -13.59744 10.80471 0 0 0
90 9.82849 -13.49128 10.85069 0 0 0
91 10.76261 -13.16338 10.97869 0 0 0
92 9.16758 -11.86171 9.54932 0 0 0
93 9.71211 -12.39398 10.11227 0 0 0
94 10.68553 -12.30376 10.36169 0 0 0
95 11.06451 -12.67863 9.58948 0 0 0
96 11.65885 -13.37433 9.28028 0 0 0
97 11.17678 -13.37247 8.32171 0 0 0
ITEM: TIMESTEP
3000
ITEM: NUMBER OF ATOMS
97
ITEM: BOX BOUNDS pp pp pp
-1.0000000000000000e+03 1.0000000000000000e+03
-1.0000000000000000e+03 1.0000000000000000e+03
-1.0000000000000000e+03 1.0000000000000000e+03
ITEM: ATOMS id x y z ix iy iz
1 -0.60710 -1.06305 3.57335 0 0 0
2 -0.38032 -1.73659 2.80201 0 0 0
3 -0.18050 -2.67510 2.70879 0 0 0
4 0.51359 -2.49398 3.23010 0 0 0
5 0.51686 -2.18022 4.16546 0 0 0
6 0.51616 -1.89348 5.09768 0 0 0
7 1.21679 -1.06728 5.46721 0 0 0
8 1.35805 -0.92382 6.33607 0 0 0
9 1.10734 -0.77194 7.24073 0 0 0
10 1.57024 -1.07462 7.97445 0 0 0
11 1.88800 -2.02450 8.38309 0 0 0
12 1.37230 -2.82070 7.99568 0 0 0
13 0.91370 -2.95401 7.14306 0 0 0
14 0.47679 -0.44440 5.50330 0 0 0
15 -0.35188 -0.45879 5.97352 0 0 0
16 -1.25344 -0.48906 6.40257 0 0 0
17 -1.77188 -0.08121 7.12385 0 0 0
18 -1.16771 0.02225 7.91511 0 0 0
19 -0.69273 -0.06882 8.78405 0 0 0
20 1.99464 -0.84888 4.95587 0 0 0
21 2.79465 -0.38424 5.02292 0 0 0
22 3.16439 0.27392 5.81574 0 0 0
23 3.50806 0.64000 6.66069 0 0 0
24 4.33529 0.46494 7.09160 0 0 0
25 4.61556 0.17554 7.98139 0 0 0
26 4.71172 -0.17254 8.98019 0 0 0
27 4.74971 0.66767 9.52805 0 0 0
28 3.93359 0.80718 10.00389 0 0 0
29 3.35889 1.47169 9.54782 0 0 0
30 3.79854 2.38532 9.59456 0 0 0
31 4.42330 2.45338 10.43892 0 0 0
32 5.00776 1.10207 7.73280 0 0 0
33 5.60273 1.11383 6.92071 0 0 0
34 5.58793 0.13867 6.76274 0 0 0
35 5.98542 -0.74454 6.94104 0 0 0
36 6.72525 -0.17460 7.03303 0 0 0
37 6.87967 0.21771 6.15818 0 0 0
38 4.25379 -0.68506 7.49463 0 0 0
39 3.79495 -1.52415 7.85680 0 0 0
40 3.11604 -2.26454 7.90169 0 0 0
41 4.03123 -2.60087 7.77927 0 0 0
42 4.58906 -3.36659 7.34291 0 0 0
43 4.64977 -4.30740 7.55110 0 0 0
44 3.90682 -4.91814 7.34724 0 0 0
45 3.42200 -4.99689 8.17791 0 0 0
46 2.58948 -4.56755 8.64987 0 0 0
47 1.80035 -5.23829 8.87998 0 0 0
48 0.97761 -5.85733 8.74834 0 0 0
49 0.09595 -5.59886 9.02008 0 0 0
50 4.91623 -3.67972 8.24647 0 0 0
51 5.15113 -3.26920 9.08749 0 0 0
52 6.11162 -3.27680 9.33557 0 0 0
53 5.53728 -3.10881 10.09004 0 0 0
54 6.06146 -3.97031 10.12465 0 0 0
55 6.46865 -4.89208 10.04815 0 0 0
56 5.43252 -4.84755 7.56720 0 0 0
57 4.76987 -5.43115 8.05853 0 0 0
58 5.51185 -6.03079 7.88954 0 0 0
59 6.43893 -6.06040 8.22922 0 0 0
60 6.97451 -6.81920 8.39377 0 0 0
61 7.19689 -7.78792 8.17058 0 0 0
62 7.88788 -7.18499 8.73515 0 0 0
63 8.41730 -6.95781 7.90419 0 0 0
64 8.43472 -6.19777 8.51063 0 0 0
65 8.53780 -5.86847 9.41572 0 0 0
66 8.06561 -5.28517 10.02408 0 0 0
67 8.31433 -5.68324 10.87519 0 0 0
68 7.24015 -8.39370 7.43792 0 0 0
69 6.34404 -7.96337 7.46579 0 0 0
70 5.40853 -8.16462 7.91628 0 0 0
71 5.03000 -8.99222 8.50593 0 0 0
72 4.20040 -9.37531 8.82857 0 0 0
73 3.33306 -9.55209 8.43125 0 0 0
74 7.83202 -8.45857 8.40703 0 0 0
75 7.50272 -9.42399 8.46936 0 0 0
76 7.25488 -9.71415 9.40894 0 0 0
77 8.09449 -9.97776 9.97794 0 0 0
78 7.96736 -10.91085 10.33172 0 0 0
79 7.55593 -11.32716 9.43807 0 0 0
80 7.72720 -11.30312 8.47550 0 0 0
81 8.33696 -10.94469 7.73073 0 0 0
82 7.79133 -10.03613 7.42420 0 0 0
83 7.96203 -10.21920 6.52746 0 0 0
84 7.55574 -10.26066 5.68708 0 0 0
85 8.40795 -10.62535 5.34344 0 0 0
86 7.08622 -12.12837 9.17643 0 0 0
87 7.89404 -12.67308 9.51759 0 0 0
88 8.07511 -13.62246 9.83031 0 0 0
89 8.70718 -14.05311 10.50663 0 0 0
90 8.36216 -14.90035 10.47294 0 0 0
91 7.75731 -15.00986 11.26188 0 0 0
92 8.47550 -11.51158 9.29437 0 0 0
93 9.25170 -12.03206 9.57976 0 0 0
94 9.93166 -12.02151 10.29062 0 0 0
95 9.12069 -11.55681 10.70142 0 0 0
96 8.69455 -10.91218 11.23748 0 0 0
97 8.00990 -11.74224 11.38676 0 0 0
ITEM: TIMESTEP
4000
ITEM: NUMBER OF ATOMS
97
ITEM: BOX BOUNDS pp pp pp
-1.0000000000000000e+03 1.0000000000000000e+03
-1.0000000000000000e+03 1.0000000000000000e+03
-1.0000000000000000e+03 1.0000000000000000e+03
ITEM: ATOMS id x y z ix iy iz
1 3.16344 1.54324 4.28913 0 0 0
2 2.51614 1.77647 4.91646 0 0 0
3 2.34619 0.79303 5.07057 0 0 0
4 1.39602 0.83531 5.03283 0 0 0
5 1.46930 0.15717 5.73030 0 0 0
6 1.77207 -0.72626 5.46734 0 0 0
7 1.49121 -0.70552 6.45246 0 0 0
8 1.66558 -1.52517 6.90805 0 0 0
9 1.68286 -1.59475 7.91739 0 0 0
10 2.01943 -1.82795 8.85810 0 0 0
11 2.94539 -1.92169 8.64423 0 0 0
12 3.67628 -1.58403 9.15152 0 0 0
13 4.27580 -1.78930 10.00871 0 0 0
14 0.62336 -0.22707 6.27843 0 0 0
15 0.21485 -0.39087 7.20985 0 0 0
16 -0.53086 -0.15332 6.75420 0 0 0
17 -1.40971 -0.42067 7.06994 0 0 0
18 -2.29373 -0.16553 7.55522 0 0 0
19 -2.46426 -1.11172 7.30058 0 0 0
20 2.29136 -0.47536 7.02391 0 0 0
21 2.08215 0.52582 6.50733 0 0 0
22 2.85285 1.09030 6.30273 0 0 0
23 3.78757 1.13309 6.55656 0 0 0
24 4.07684 0.30832 6.98854 0 0 0
25 3.98044 -0.67170 7.03737 0 0 0
26 3.87680 -0.80038 7.95845 0 0 0
27 3.59694 -0.29296 8.73646 0 0 0
28 3.68210 0.65338 9.04245 0 0 0
29 3.13686 1.18186 9.67397 0 0 0
30 2.61563 1.89477 10.16838 0 0 0
31 3.33444 2.28955 10.71115 0 0 0
32 4.57845 -0.44652 6.28504 0 0 0
33 5.23564 -1.14082 5.77953 0 0 0
34 6.15452 -0.96192 5.93635 0 0 0
35 6.85095 -0.34915 5.52177 0 0 0
36 7.86958 -0.45003 5.58729 0 0 0
37 8.38186 -0.91962 4.93370 0 0 0
38 4.60745 -1.40805 6.94049 0 0 0
39 4.72278 -2.28298 6.40994 0 0 0
40 5.34152 -3.10700 6.31797 0 0 0
41 5.52405 -3.59070 7.13491 0 0 0
42 5.48845 -4.33070 7.75667 0 0 0
43 5.89708 -3.92576 8.59470 0 0 0
44 5.45308 -3.00664 8.69343 0 0 0
45 4.57487 -2.54633 8.92777 0 0 0
46 4.11486 -3.47299 8.60821 0 0 0
47 3.12848 -3.47357 8.27395 0 0 0
48 2.71051 -3.65815 7.38050 0 0 0
49 2.54029 -3.88881 6.41591 0 0 0
50 6.50657 -3.62525 9.31904 0 0 0
51 6.75249 -3.41089 10.28235 0 0 0
52 6.56153 -3.19958 11.28407 0 0 0
53 5.83300 -3.72668 11.93381 0 0 0
54 5.52711 -3.45869 12.84261 0 0 0
55 4.79058 -3.14060 12.16357 0 0 0
56 6.16192 -4.78730 8.89269 0 0 0
57 6.71511 -5.64678 9.11437 0 0 0
58 7.15950 -6.50007 9.09879 0 0 0
59 7.79122 -7.19615 8.65898 0 0 0
60 7.62299 -8.16362 8.71010 0 0 0
61 7.84948 -8.09001 9.69411 0 0 0
62 8.38116 -7.37072 10.13382 0 0 0
63 9.28234 -6.95996 10.15482 0 0 0
64 9.46056 -6.04059 9.91962 0 0 0
65 9.62995 -5.19821 9.35516 0 0 0
66 10.42812 -4.80526 9.65941 0 0 0
67 10.45115 -3.94115 10.14235 0 0 0
68 7.33896 -8.91717 9.49468 0 0 0
69 6.69109 -9.57091 9.03775 0 0 0
70 5.78276 -9.31980 8.66624 0 0 0
71 5.25653 -8.57319 9.10655 0 0 0
72 4.49491 -9.23166 9.06162 0 0 0
73 5.01126 -9.82006 9.62299 0 0 0
74 7.63992 -8.70148 10.42543 0 0 0
75 7.75937 -9.64006 10.34485 0 0 0
76 7.38184 -10.41250 10.80379 0 0 0
77 7.05214 -11.32535 10.72488 0 0 0
78 7.58507 -12.04847 10.95823 0 0 0
79 8.46629 -12.40964 10.70702 0 0 0
80 8.41593 -11.87295 9.81295 0 0 0
81 7.92014 -11.36142 9.05480 0 0 0
82 7.39632 -11.43864 8.20424 0 0 0
83 7.53481 -11.42037 7.21581 0 0 0
84 8.55444 -11.45313 7.22380 0 0 0
85 8.22773 -11.99808 6.40354 0 0 0
86 7.79579 -12.88707 10.25347 0 0 0
87 7.13384 -13.41217 9.87484 0 0 0
88 6.18531 -13.29227 9.71927 0 0 0
89 5.57075 -13.02947 8.97234 0 0 0
90 6.14866 -13.39000 8.31804 0 0 0
91 6.46108 -13.58148 7.36681 0 0 0
92 9.13445 -13.10983 10.98297 0 0 0
93 9.82645 -13.72500 10.55723 0 0 0
94 10.61555 -14.32573 10.75138 0 0 0
95 11.07883 -14.08431 11.60163 0 0 0
96 11.82211 -14.23248 12.23349 0 0 0
97 11.65555 -15.11661 12.74727 0 0 0
ITEM: TIMESTEP
5000
ITEM: NUMBER OF ATOMS
97
ITEM: BOX BOUNDS pp pp pp
-1.0000000000000000e+03 1.0000000000000000e+03
-1.0000000000000000e+03 1.0000000000000000e+03
-1.0000000000000000e+03 1.0000000000000000e+03
ITEM: ATOMS id x y z ix iy iz
1 2.55666 1.36866 7.55860 0 0 0
2 1.82512 1.16770 8.19144 0 0 0
3 0.96133 0.98438 8.56189 0 0 0
4 0.14567 0.58708 8.34797 0 0 0
5 -0.29064 -0.25922 7.87263 0 0 0
6 0.57724 -0.69437 7.80598 0 0 0
7 1.08915 -0.99529 8.61963 0 0 0
8 1.66757 -0.26483 8.89309 0 0 0
9 2.08853 -0.53012 9.67027 0 0 0
10 1.91001 -0.06176 10.61241 0 0 0
11 2.47701 -0.08079 11.33438 0 0 0
12 3.05371 0.54227 11.79668 0 0 0
13 3.87542 -0.07864 11.77668 0 0 0
14 0.16682 -1.40989 8.80711 0 0 0
15 0.32380 -1.33507 9.75678 0 0 0
16 -0.05594 -1.52250 10.65041 0 0 0
17 -0.53886 -2.05914 9.98339 0 0 0
18 -0.56220 -3.06076 10.19373 0 0 0
19 -0.03859 -3.83393 10.39595 0 0 0
20 1.64405 -0.81578 7.91191 0 0 0
21 2.24955 -0.04680 7.81067 0 0 0
22 2.61169 -0.52651 7.03266 0 0 0
23 2.89742 0.36729 6.90521 0 0 0
24 3.55897 1.09159 6.92959 0 0 0
25 4.52750 1.18926 6.80697 0 0 0
26 4.06430 1.93703 7.20438 0 0 0
27 4.89666 2.31215 7.77417 0 0 0
28 5.18793 1.76923 8.58743 0 0 0
29 4.83256 0.87154 8.88563 0 0 0
30 4.79082 0.34439 9.80449 0 0 0
31 3.95099 0.14838 10.12366 0 0 0
32 5.45114 1.15153 6.80048 0 0 0
33 5.33156 1.90353 6.20799 0 0 0
34 5.38316 1.63273 5.30901 0 0 0
35 5.26948 1.05337 4.49887 0 0 0
36 6.02212 0.81024 5.10629 0 0 0
37 6.97543 0.55501 5.15889 0 0 0
38 4.99331 0.29645 6.63668 0 0 0
39 5.62447 -0.47943 6.41239 0 0 0
40 5.97963 -1.13448 7.14462 0 0 0
41 5.96181 -1.91748 7.77021 0 0 0
42 5.60419 -2.20749 8.63151 0 0 0
43 5.84426 -3.15037 8.39562 0 0 0
44 4.86415 -3.10719 8.04343 0 0 0
45 4.41214 -2.82976 7.26641 0 0 0
46 3.49685 -3.17261 7.37254 0 0 0
47 3.18207 -3.97033 7.81598 0 0 0
48 2.20972 -4.05744 7.96561 0 0 0
49 1.63654 -3.38419 7.50231 0 0 0
50 6.12102 -2.86230 9.27440 0 0 0
51 7.04248 -2.50264 9.15478 0 0 0
52 7.53189 -2.52354 9.96134 0 0 0
53 8.18975 -3.31647 9.87315 0 0 0
54 9.02598 -3.36265 9.37085 0 0 0
55 9.36996 -3.44941 10.26319 0 0 0
56 6.18831 -3.96112 7.93760 0 0 0
57 6.62178 -4.74790 7.53250 0 0 0
58 6.63496 -5.74503 7.77222 0 0 0
59 6.65797 -6.72374 8.12916 0 0 0
60 6.53904 -6.99419 9.03921 0 0 0
61 7.48092 -7.32553 9.20761 0 0 0
62 8.22491 -6.66713 9.49138 0 0 0
63 8.80459 -6.91452 8.73190 0 0 0
64 9.16200 -6.03823 8.52864 0 0 0
65 9.04062 -5.05397 8.39738 0 0 0
66 10.00316 -4.78175 8.35250 0 0 0
67 10.95508 -5.24551 8.16191 0 0 0
68 7.32474 -8.22552 8.94219 0 0 0
69 7.47499 -8.26174 9.91542 0 0 0
70 7.58878 -8.45305 10.90025 0 0 0
71 8.41970 -8.29846 10.48751 0 0 0
72 8.29893 -9.28485 10.72459 0 0 0
73 7.64635 -9.98865 10.89317 0 0 0
74 8.33958 -7.85233 9.02901 0 0 0
75 8.22475 -8.61288 8.41825 0 0 0
76 8.19304 -9.24519 9.17663 0 0 0
77 8.11490 -10.21482 9.27598 0 0 0
78 8.78316 -10.89852 9.38770 0 0 0
79 7.92274 -11.31475 9.53572 0 0 0
80 7.80841 -11.31617 8.55017 0 0 0
81 8.40634 -11.43402 7.78790 0 0 0
82 8.87938 -10.59143 7.69702 0 0 0
83 8.79211 -10.78192 6.70219 0 0 0
84 8.86178 -11.68255 6.44972 0 0 0
85 8.50834 -12.49714 6.84587 0 0 0
86 7.19407 -12.01551 9.58649 0 0 0
87 6.33393 -12.43824 9.52137 0 0 0
88 5.52274 -13.02770 9.11982 0 0 0
89 5.12803 -13.81336 8.74892 0 0 0
90 5.33848 -13.97538 7.81763 0 0 0
91 4.74030 -13.54519 7.20237 0 0 0
92 8.44280 -12.07391 10.00029 0 0 0
93 8.85571 -12.61997 10.72609 0 0 0
94 9.13526 -13.50867 10.30077 0 0 0
95 10.10868 -13.33748 10.46695 0 0 0
96 10.71142 -13.34338 9.66490 0 0 0
97 11.49055 -12.94932 10.06498 0 0 0
ITEM: TIMESTEP
6000
ITEM: NUMBER OF ATOMS
97
ITEM: BOX BOUNDS pp pp pp
-1.0000000000000000e+03 1.0000000000000000e+03
-1.0000000000000000e+03 1.0000000000000000e+03
-1.0000000000000000e+03 1.0000000000000000e+03
ITEM: ATOMS id x y z ix iy iz
1 -0.62537 1.93551 11.36459 0 0 0
2 0.19991 1.43468 11.38034 0 0 0
3 -0.07922 1.33329 10.44072 0 0 0
4 -0.53409 0.85406 9.69335 0 0 0
5 0.09290 0.32127 9.15849 0 0 0
6 0.94784 0.18960 8.66895 0 0 0
7 1.64893 -0.19697 8.10903 0 0 0
8 2.12910 -0.14093 8.98690 0 0 0
9 2.75330 -0.51350 9.82044 0 0 0
10 3.39204 0.22430 10.09362 0 0 0
11 2.49207 0.31946 10.50734 0 0 0
12 1.56666 0.46070 10.80376 0 0 0
13 1.07327 -0.27037 11.28911 0 0 0
14 0.79544 -0.72776 7.91173 0 0 0
15 0.45271 -0.99499 8.80912 0 0 0
16 0.01238 -1.73508 9.24799 0 0 0
17 -0.15729 -1.76651 10.27542 0 0 0
18 -0.79433 -2.09185 10.84614 0 0 0
19 -1.15270 -1.52147 11.56158 0 0 0
20 2.22497 0.36380 7.66382 0 0 0
21 2.99184 0.21356 6.97426 0 0 0
22 3.26527 0.36012 6.03818 0 0 0
23 3.49930 -0.64356 6.32400 0 0 0
24 3.99247 -1.44495 5.90329 0 0 0
25 4.76005 -0.89249 5.97984 0 0 0
26 5.22463 -0.00390 6.05312 0 0 0
27 5.94231 -0.43577 6.48543 0 0 0
28 6.20572 0.09913 7.25208 0 0 0
29 6.27143 -0.43650 8.05512 0 0 0
30 5.82720 0.27898 8.56550 0 0 0
31 5.14885 0.72108 9.12549 0 0 0
32 4.93175 -0.52977 5.09015 0 0 0
33 5.79463 -0.31921 4.60522 0 0 0
34 6.00329 0.66577 4.49563 0 0 0
35 6.11981 1.67474 4.67455 0 0 0
36 5.83446 1.96183 3.79113 0 0 0
37 6.47170 2.27226 3.13317 0 0 0
38 5.10776 -1.38270 6.79683 0 0 0
39 5.60450 -2.08036 6.42912 0 0 0
40 6.41956 -2.33690 6.97285 0 0 0
41 7.03561 -3.05003 6.91590 0 0 0
42 7.45635 -3.13960 7.81489 0 0 0
43 7.37300 -3.22827 8.75748 0 0 0
44 6.43486 -3.11410 9.07448 0 0 0
45 5.54496 -2.77293 9.34191 0 0 0
46 4.64957 -3.09068 9.67494 0 0 0
47 4.04953 -3.17127 8.89743 0 0 0
48 3.92182 -2.22795 8.64782 0 0 0
49 3.01427 -2.59713 8.51265 0 0 0
50 7.91660 -2.44448 8.87960 0 0 0
51 7.67315 -1.67284 9.46148 0 0 0
52 8.18961 -1.01498 9.95228 0 0 0
53 8.86626 -0.58850 10.41928 0 0 0
54 9.81549 -0.86432 10.67169 0 0 0
55 9.65331 -1.82866 10.94261 0 0 0
56 6.89409 -3.99544 8.46203 0 0 0
57 6.92310 -4.82232 7.68153 0 0 0
58 7.74476 -4.41205 7.43197 0 0 0
59 8.50692 -4.37265 8.00042 0 0 0
60 8.54433 -5.07053 7.26970 0 0 0
61 8.72888 -5.68936 7.94093 0 0 0
62 9.67076 -5.85833 8.20382 0 0 0
63 10.00956 -6.75300 8.59764 0 0 0
64 9.79996 -6.76654 7.62860 0 0 0
65 10.04805 -7.17761 6.71023 0 0 0
66 10.51776 -7.99844 6.43356 0 0 0
67 10.93584 -8.27298 5.51322 0 0 0
68 7.81651 -5.78128 8.30446 0 0 0
69 7.35445 -6.45687 7.62763 0 0 0
70 6.84248 -7.06977 6.92864 0 0 0
71 6.26571 -7.75608 7.14337 0 0 0
72 5.83205 -8.29283 6.48807 0 0 0
73 4.81791 -7.96884 6.11388 0 0 0
74 8.68066 -6.67735 7.80593 0 0 0
75 9.11718 -7.43578 8.25946 0 0 0
76 8.83676 -8.17441 8.81434 0 0 0
77 8.55444 -9.04718 8.57372 0 0 0
78 8.46301 -9.69380 9.35671 0 0 0
79 8.47359 -10.45942 10.05109 0 0 0
80 9.05413 -10.86182 9.45855 0 0 0
81 9.53371 -11.71138 9.15734 0 0 0
82 10.19962 -12.50536 9.30123 0 0 0
83 9.90832 -13.32460 8.88944 0 0 0
84 9.49210 -12.61271 8.32872 0 0 0
85 8.62800 -12.45366 7.96944 0 0 0
86 7.49379 -10.71445 10.24424 0 0 0
87 7.66787 -11.81536 10.45006 0 0 0
88 8.39176 -12.33981 10.91475 0 0 0
89 9.11976 -12.89447 10.50349 0 0 0
90 8.52043 -13.10039 9.73646 0 0 0
91 7.67033 -13.11550 10.30570 0 0 0
92 9.28842 -9.94551 10.30080 0 0 0
93 10.20908 -10.09659 10.22295 0 0 0
94 10.98066 -10.66297 9.98776 0 0 0
95 11.92040 -10.87471 9.83858 0 0 0
96 12.26393 -11.85277 9.81155 0 0 0
97 12.25471 -12.43338 8.89303 0 0 0
ITEM: TIMESTEP
7000
ITEM: NUMBER OF ATOMS
97
ITEM: BOX BOUNDS pp pp pp
-1.0000000000000000e+03 1.0000000000000000e+03
-1.0000000000000000e+03 1.0000000000000000e+03
-1.0000000000000000e+03 1.0000000000000000e+03
ITEM: ATOMS id x y z ix iy iz
1 1.07008 4.19607 10.91271 0 0 0
2 0.98549 3.39061 11.48467 0 0 0
3 1.55818 2.64556 11.22591 0 0 0
4 1.94559 1.76307 11.36672 0 0 0
5 2.17919 0.76801 11.67439 0 0 0
6 1.65846 0.64857 10.83730 0 0 0
7 1.89387 0.10750 10.10256 0 0 0
8 2.77469 0.31011 10.56906 0 0 0
9 3.27047 0.06470 11.37527 0 0 0
10 4.02798 -0.58251 11.35805 0 0 0
11 4.55169 -0.61211 12.13652 0 0 0
12 4.89322 -1.17585 12.94203 0 0 0
13 4.53934 -1.02805 13.82821 0 0 0
14 1.55290 -0.82387 9.94932 0 0 0
15 0.83402 -1.35559 9.58883 0 0 0
16 0.90951 -2.00658 10.34401 0 0 0
17 1.67849 -2.59972 10.62781 0 0 0
18 2.16910 -3.34446 10.31344 0 0 0
19 2.08846 -2.67172 9.58012 0 0 0
20 1.60346 0.37160 9.13885 0 0 0
21 1.94660 0.43096 8.19954 0 0 0
22 2.94201 0.36397 8.37093 0 0 0
23 3.30748 0.20134 7.52471 0 0 0
24 4.21763 0.23615 7.12686 0 0 0
25 4.94242 -0.35106 7.22274 0 0 0
26 4.78495 -0.10709 8.14867 0 0 0
27 4.07345 -0.77380 7.97633 0 0 0
28 3.84332 -1.44707 8.72931 0 0 0
29 4.55225 -1.92342 9.22298 0 0 0
30 4.46782 -1.81999 10.22429 0 0 0
31 3.86026 -1.11489 9.82620 0 0 0
32 4.63392 -0.33890 6.23764 0 0 0
33 4.34379 -0.33776 5.27666 0 0 0
34 4.83002 -0.35786 4.38281 0 0 0
35 5.66874 -0.15829 3.92744 0 0 0
36 5.50096 -1.17561 3.91469 0 0 0
37 4.59754 -1.52379 3.67591 0 0 0
38 5.80911 -0.00554 7.60556 0 0 0
39 6.58408 -0.48896 7.27622 0 0 0
40 7.04424 -1.30882 7.13338 0 0 0
41 7.85813 -1.77330 6.98808 0 0 0
42 8.24057 -2.18124 7.82446 0 0 0
43 8.09318 -2.78062 8.55297 0 0 0
44 7.15281 -2.94783 8.75660 0 0 0
45 7.08608 -3.50770 9.50255 0 0 0
46 7.06730 -3.11388 10.42348 0 0 0
47 7.10140 -2.37798 11.02982 0 0 0
48 7.08139 -3.22938 11.55883 0 0 0
49 7.93028 -3.38962 11.99174 0 0 0
50 8.25116 -3.09314 9.47217 0 0 0
51 8.41371 -3.26444 10.39491 0 0 0
52 8.45782 -2.51504 11.02880 0 0 0
53 8.18750 -2.24790 12.00926 0 0 0
54 8.74644 -2.61456 12.75547 0 0 0
55 8.77371 -1.65870 13.09759 0 0 0
56 8.31708 -3.39751 7.77950 0 0 0
57 7.91031 -4.26886 7.90203 0 0 0
58 7.62633 -4.97970 7.24429 0 0 0
59 7.66038 -5.93649 6.97772 0 0 0
60 7.54912 -6.86240 6.85684 0 0 0
61 7.02829 -7.54864 7.36604 0 0 0
62 7.72211 -7.59270 8.11796 0 0 0
63 8.67957 -7.88989 8.07145 0 0 0
64 8.68049 -7.37991 8.87638 0 0 0
65 8.24345 -6.76434 9.52579 0 0 0
66 8.87873 -6.03738 9.40700 0 0 0
67 9.55298 -5.76412 10.03759 0 0 0
68 6.11770 -7.18686 7.15805 0 0 0
69 5.45416 -6.55002 6.75870 0 0 0
70 5.26724 -6.33100 5.81665 0 0 0
71 4.86179 -6.15556 4.91174 0 0 0
72 5.41787 -6.58553 4.15520 0 0 0
73 6.04383 -7.22693 3.80443 0 0 0
74 6.98621 -8.39817 7.86457 0 0 0
75 6.66098 -8.71873 8.77355 0 0 0
76 6.86119 -8.58367 9.72290 0 0 0
77 7.77830 -8.98693 9.56071 0 0 0
78 8.21142 -9.76435 9.98237 0 0 0
79 8.98483 -10.21810 10.40355 0 0 0
80 8.22604 -10.71632 10.55546 0 0 0
81 8.17705 -11.66468 10.26870 0 0 0
82 8.36410 -11.81507 9.31114 0 0 0
83 8.98949 -11.95597 8.58798 0 0 0
84 9.44064 -11.17898 8.33806 0 0 0
85 9.12669 -10.41571 7.86267 0 0 0
86 9.57967 -10.76802 11.02960 0 0 0
87 9.63252 -10.67443 12.17256 0 0 0
88 10.12930 -10.94275 12.93615 0 0 0
89 10.13807 -11.35370 13.84147 0 0 0
90 10.69496 -11.93266 14.29514 0 0 0
91 11.34095 -12.64047 14.08555 0 0 0
92 9.52377 -10.38946 9.56750 0 0 0
93 10.04662 -11.28171 9.62721 0 0 0
94 10.17413 -12.26934 9.70480 0 0 0
95 11.09218 -12.43277 9.54999 0 0 0
96 10.87123 -13.35274 9.53808 0 0 0
97 10.66149 -14.34616 9.60652 0 0 0
ITEM: TIMESTEP
8000
ITEM: NUMBER OF ATOMS
97
ITEM: BOX BOUNDS pp pp pp
-1.0000000000000000e+03 1.0000000000000000e+03
-1.0000000000000000e+03 1.0000000000000000e+03
-1.0000000000000000e+03 1.0000000000000000e+03
ITEM: ATOMS id x y z ix iy iz
1 2.07320 4.37526 10.31781 0 0 0
2 1.61915 3.97289 11.05900 0 0 0
3 2.08657 3.20290 10.74203 0 0 0
4 1.94046 2.56388 9.96649 0 0 0
5 2.26789 1.62381 9.74931 0 0 0
6 2.89708 1.54380 9.07107 0 0 0
7 3.03710 0.79436 8.51209 0 0 0
8 4.00758 0.84786 8.58220 0 0 0
9 4.95857 0.89230 8.33038 0 0 0
10 4.99255 1.88162 8.54351 0 0 0
11 5.81084 2.34538 8.98641 0 0 0
12 6.09327 1.44215 8.78676 0 0 0
13 6.73774 1.92920 9.32767 0 0 0
14 2.75404 -0.03935 7.99587 0 0 0
15 1.94812 -0.64605 8.20929 0 0 0
16 1.29808 -0.66937 8.90043 0 0 0
17 1.15874 -1.60989 8.65446 0 0 0
18 1.48827 -2.46288 8.43488 0 0 0
19 2.37278 -2.55966 8.13260 0 0 0
20 2.96744 1.44106 7.74281 0 0 0
21 3.55079 1.19642 6.91343 0 0 0
22 3.84148 1.58840 6.01149 0 0 0
23 4.50228 0.99810 6.46984 0 0 0
24 4.72184 0.05433 6.14528 0 0 0
25 5.33776 -0.75636 6.43591 0 0 0
26 4.44449 -0.97041 6.98166 0 0 0
27 4.50124 -0.66040 7.92347 0 0 0
28 4.71507 -0.51440 8.82605 0 0 0
29 4.83589 -1.01817 9.58904 0 0 0
30 5.29896 -0.95909 10.49606 0 0 0
31 6.28636 -1.20301 10.65320 0 0 0
32 5.15486 -1.49217 5.79810 0 0 0
33 4.45953 -1.03913 5.32308 0 0 0
34 3.71483 -0.33986 5.29926 0 0 0
35 3.50092 0.45138 5.80963 0 0 0