ITEM: TIMESTEP
0
ITEM: NUMBER OF ATOMS
293
ITEM: BOX BOUNDS pp pp pp
-1.0000000000000000e+03 1.0000000000000000e+03
-1.0000000000000000e+03 1.0000000000000000e+03
-1.0000000000000000e+03 1.0000000000000000e+03
ITEM: ATOMS id x y z ix iy iz
1 0.00000 0.00000 0.00000 0 0 0
2 0.00000 0.00000 1.00000 0 0 0
3 0.00000 -0.50000 1.86603 0 0 0
4 0.00000 0.00000 2.73205 0 0 0
5 0.00000 -0.50000 3.59808 0 0 0
6 0.00000 0.00000 4.46410 0 0 0
7 0.00000 -0.50000 5.33013 0 0 0
8 0.00000 0.00000 6.19615 0 0 0
9 0.00000 -0.50000 7.06218 0 0 0
10 0.00000 0.00000 7.92820 0 0 0
11 0.00000 -0.50000 8.79423 0 0 0
12 0.00000 0.00000 9.66025 0 0 0
13 0.00000 -0.50000 10.52628 0 0 0
14 0.00000 0.00000 11.39230 0 0 0
15 0.00000 -0.50000 12.25833 0 0 0
16 0.00000 0.00000 13.12436 0 0 0
17 0.00000 -0.50000 13.99038 0 0 0
18 0.00000 0.00000 14.85641 0 0 0
19 0.00000 -0.50000 15.72243 0 0 0
20 0.25487 0.11904 16.46528 0 0 0
21 0.50973 0.28372 17.41813 0 0 0
22 0.76460 1.19126 17.75194 0 0 0
23 1.01947 1.35594 18.70479 0 0 0
24 1.27434 2.26347 19.03860 0 0 0
25 1.52920 2.42815 19.99145 0 0 0
26 1.78407 3.33568 20.32525 0 0 0
27 2.03894 3.50037 21.27810 0 0 0
28 2.29381 4.40790 21.61191 0 0 0
29 2.54867 4.57258 22.56476 0 0 0
30 2.80354 5.48011 22.89857 0 0 0
31 3.05841 5.64479 23.85142 0 0 0
32 3.31328 6.55233 24.18522 0 0 0
33 3.56814 6.71701 25.13807 0 0 0
34 3.82301 7.62454 25.47188 0 0 0
35 4.07788 7.78922 26.42473 0 0 0
36 4.33274 8.69675 26.75854 0 0 0
37 4.58761 8.86143 27.71139 0 0 0
38 0.65851 -1.25103 15.67427 0 0 0
39 1.31703 -1.87736 15.25705 0 0 0
40 1.97554 -2.55184 15.59086 0 0 0
41 2.63405 -3.17817 15.17364 0 0 0
42 3.29256 -3.85266 15.50745 0 0 0
43 3.95108 -4.47899 15.09023 0 0 0
44 4.60959 -5.15348 15.42403 0 0 0
45 5.26810 -5.77981 15.00681 0 0 0
46 5.92661 -6.45430 15.34062 0 0 0
47 6.58513 -7.08062 14.92340 0 0 0
48 7.24364 -7.75511 15.25721 0 0 0
49 7.90215 -8.38144 14.83999 0 0 0
50 8.56067 -9.05593 15.17379 0 0 0
51 9.21918 -9.68226 14.75657 0 0 0
52 9.87769 -10.35675 15.09038 0 0 0
53 10.53620 -10.98308 14.67316 0 0 0
54 11.19472 -11.65756 15.00697 0 0 0
55 11.85323 -12.28389 14.58975 0 0 0
56 -0.91338 -0.86873 15.89499 0 0 0
57 -1.82676 -1.27433 15.86008 0 0 0
58 -2.74014 -1.50738 16.19388 0 0 0
59 -3.65352 -1.91299 16.15896 0 0 0
60 -4.56690 -2.14603 16.49277 0 0 0
61 -5.48028 -2.55164 16.45785 0 0 0
62 -6.39366 -2.78468 16.79166 0 0 0
63 -7.30704 -3.19029 16.75674 0 0 0
64 -8.22042 -3.42334 17.09055 0 0 0
65 -9.13380 -3.82894 17.05563 0 0 0
66 -10.04718 -4.06199 17.38943 0 0 0
67 -10.96056 -4.46760 17.35451 0 0 0
68 -11.87394 -4.70064 17.68832 0 0 0
69 -12.78732 -5.10625 17.65340 0 0 0
70 -13.70070 -5.33929 17.98721 0 0 0
71 -14.61408 -5.74490 17.95229 0 0 0
72 -15.52746 -5.97795 18.28610 0 0 0
73 -16.44084 -6.38355 18.25118 0 0 0
74 -17.35422 -6.61660 18.58498 0 0 0
75 -17.53843 -7.58309 18.40620 0 0 0
76 -17.72264 -8.33070 17.76812 0 0 0
77 -17.90684 -9.25710 18.09653 0 0 0
78 -18.09105 -10.00471 17.45845 0 0 0
79 -18.27526 -10.93111 17.78687 0 0 0
80 -18.45946 -11.67872 17.14879 0 0 0
81 -18.64367 -12.60512 17.47720 0 0 0
82 -18.82788 -13.35273 16.83912 0 0 0
83 -19.01209 -14.27913 17.16753 0 0 0
84 -19.19629 -15.02674 16.52946 0 0 0
85 -19.38050 -15.95314 16.85787 0 0 0
86 -19.56471 -16.70075 16.21979 0 0 0
87 -19.74892 -17.62715 16.54820 0 0 0
88 -19.93312 -18.37476 15.91012 0 0 0
89 -20.11733 -19.30116 16.23854 0 0 0
90 -20.30154 -20.04877 15.60046 0 0 0
91 -20.48574 -20.97517 15.92887 0 0 0
92 -20.66995 -21.72278 15.29079 0 0 0
93 -18.03494 -6.05537 18.11419 0 0 0
94 -18.71565 -5.33393 17.98709 0 0 0
95 -19.39637 -5.08329 17.29875 0 0 0
96 -20.07709 -4.36185 17.17165 0 0 0
97 -20.75780 -4.11121 16.48331 0 0 0
98 -21.43852 -3.38977 16.35621 0 0 0
99 -22.11923 -3.13913 15.66788 0 0 0
100 -22.79995 -2.41769 15.54077 0 0 0
101 -23.48067 -2.16705 14.85244 0 0 0
102 -24.16138 -1.44561 14.72534 0 0 0
103 -24.84210 -1.19497 14.03700 0 0 0
104 -25.52282 -0.47354 13.90990 0 0 0
105 -26.20353 -0.22289 13.22156 0 0 0
106 -26.88425 0.49854 13.09446 0 0 0
107 -27.56496 0.74919 12.40613 0 0 0
108 -28.24568 1.47062 12.27902 0 0 0
109 -28.92640 1.72127 11.59069 0 0 0
110 -29.60711 2.44270 11.46359 0 0 0
111 -17.40397 -6.44471 19.56884 0 0 0
112 -17.45373 -6.78779 20.50683 0 0 0
113 -17.50348 -6.14700 21.27294 0 0 0
114 -17.55324 -6.49008 22.21093 0 0 0
115 -17.60299 -5.84929 22.97703 0 0 0
116 -17.65275 -6.19236 23.91502 0 0 0
117 -17.70250 -5.55158 24.68113 0 0 0
118 -17.75225 -5.89465 25.61912 0 0 0
119 -17.80201 -5.25386 26.38522 0 0 0
120 -17.85176 -5.59694 27.32321 0 0 0
121 -17.90152 -4.95615 28.08932 0 0 0
122 -17.95127 -5.29923 29.02731 0 0 0
123 -18.00102 -4.65844 29.79342 0 0 0
124 -18.05078 -5.00151 30.73140 0 0 0
125 -18.10053 -4.36073 31.49751 0 0 0
126 -18.15029 -4.70380 32.43550 0 0 0
127 -18.20004 -4.06302 33.20161 0 0 0
128 -18.24979 -4.40609 34.13960 0 0 0
129 -18.29955 -3.76530 34.90570 0 0 0
130 -19.25359 -3.64827 35.18157 0 0 0
131 -20.20763 -3.68486 35.47900 0 0 0
132 -21.16168 -3.44557 35.65940 0 0 0
133 -22.11572 -3.48215 35.95683 0 0 0
134 -23.06976 -3.24286 36.13722 0 0 0
135 -24.02381 -3.27945 36.43465 0 0 0
136 -24.97785 -3.04016 36.61505 0 0 0
137 -25.93189 -3.07674 36.91247 0 0 0
138 -26.88594 -2.83745 37.09287 0 0 0
139 -27.83998 -2.87404 37.39030 0 0 0
140 -28.79402 -2.63475 37.57070 0 0 0
141 -29.74807 -2.67133 37.86812 0 0 0
142 -30.70211 -2.43204 38.04852 0 0 0
143 -31.65615 -2.46863 38.34595 0 0 0
144 -32.61019 -2.22934 38.52634 0 0 0
145 -33.56424 -2.26592 38.82377 0 0 0
146 -34.51828 -2.02663 39.00417 0 0 0
147 -35.47232 -2.06322 39.30160 0 0 0
148 -17.92288 -2.88188 34.62697 0 0 0
149 -17.54622 -1.97745 34.82729 0 0 0
150 -17.16956 -1.35175 34.14420 0 0 0
151 -16.79289 -0.44732 34.34452 0 0 0
152 -16.41623 0.17838 33.66142 0 0 0
153 -16.03956 1.08281 33.86174 0 0 0
154 -15.66290 1.70851 33.17865 0 0 0
155 -15.28623 2.61294 33.37897 0 0 0
156 -14.90957 3.23864 32.69587 0 0 0
157 -14.53291 4.14307 32.89620 0 0 0
158 -14.15624 4.76877 32.21310 0 0 0
159 -13.77958 5.67320 32.41342 0 0 0
160 -13.40291 6.29890 31.73032 0 0 0
161 -13.02625 7.20333 31.93065 0 0 0
162 -12.64959 7.82903 31.24755 0 0 0
163 -12.27292 8.73346 31.44787 0 0 0
164 -11.89626 9.35917 30.76477 0 0 0
165 -11.51959 10.26360 30.96510 0 0 0
166 -17.77199 -4.12406 35.67575 0 0 0
167 -17.24444 -4.81978 36.16326 0 0 0
168 -16.71689 -4.74545 37.00952 0 0 0
169 -16.18933 -5.44116 37.49703 0 0 0
170 -15.66178 -5.36683 38.34329 0 0 0
171 -15.13422 -6.06255 38.83080 0 0 0
172 -14.60667 -5.98822 39.67706 0 0 0
173 -14.07912 -6.68393 40.16457 0 0 0
174 -13.55156 -6.60960 41.01083 0 0 0
175 -13.02401 -7.30532 41.49834 0 0 0
176 -12.49645 -7.23099 42.34460 0 0 0
177 -11.96890 -7.92670 42.83211 0 0 0
178 -11.44134 -7.85237 43.67837 0 0 0
179 -10.91379 -8.54809 44.16588 0 0 0
180 -10.38624 -8.47376 45.01214 0 0 0
181 -9.85868 -9.16947 45.49964 0 0 0
182 -9.33113 -9.09514 46.34591 0 0 0
183 -8.80357 -9.79086 46.83341 0 0 0
184 -8.27602 -9.71653 47.67968 0 0 0
185 -7.42348 -9.22589 47.49956 0 0 0
186 -6.57093 -8.71092 47.58889 0 0 0
187 -5.71839 -8.37607 47.18759 0 0 0
188 -4.86585 -7.86111 47.27692 0 0 0
189 -4.01330 -7.52626 46.87561 0 0 0
190 -3.16076 -7.01130 46.96495 0 0 0
191 -2.30822 -6.67645 46.56364 0 0 0
192 -1.45567 -6.16148 46.65297 0 0 0
193 -0.60313 -5.82664 46.25167 0 0 0
194 0.24942 -5.31167 46.34100 0 0 0
195 1.10196 -4.97682 45.93969 0 0 0
196 1.95450 -4.46186 46.02903 0 0 0
197 2.80705 -4.12701 45.62772 0 0 0
198 3.65959 -3.61204 45.71705 0 0 0
199 4.51213 -3.27720 45.31575 0 0 0
200 5.36468 -2.76223 45.40508 0 0 0
201 6.21722 -2.42738 45.00377 0 0 0
202 7.06976 -1.91242 45.09311 0 0 0
203 -8.06696 -10.63173 48.02419 0 0 0
204 -7.85790 -11.59658 47.86494 0 0 0
205 -7.64885 -12.21692 48.62090 0 0 0
206 -7.43979 -13.18177 48.46166 0 0 0
207 -7.23073 -13.80211 49.21762 0 0 0
208 -7.02167 -14.76696 49.05837 0 0 0
209 -6.81262 -15.38730 49.81433 0 0 0
210 -6.60356 -16.35215 49.65508 0 0 0
211 -6.39450 -16.97248 50.41104 0 0 0
212 -6.18544 -17.93733 50.25180 0 0 0
213 -5.97639 -18.55767 51.00776 0 0 0
214 -5.76733 -19.52252 50.84851 0 0 0
215 -5.55827 -20.14286 51.60447 0 0 0
216 -5.34921 -21.10771 51.44522 0 0 0
217 -5.14015 -21.72804 52.20118 0 0 0
218 -4.93110 -22.69289 52.04194 0 0 0
219 -4.72204 -23.31323 52.79790 0 0 0
220 -4.51298 -24.27808 52.63865 0 0 0
221 -8.80932 -9.21752 48.36275 0 0 0
222 -9.34261 -9.12690 49.20381 0 0 0
223 -9.87591 -8.35321 49.54586 0 0 0
224 -10.40921 -8.26259 50.38692 0 0 0
225 -10.94251 -7.48891 50.72897 0 0 0
226 -11.47580 -7.39829 51.57003 0 0 0
227 -12.00910 -6.62460 51.91208 0 0 0
228 -12.54240 -6.53398 52.75314 0 0 0
229 -13.07570 -5.76029 53.09520 0 0 0
230 -13.60899 -5.66967 53.93626 0 0 0
231 -14.14229 -4.89599 54.27831 0 0 0
232 -14.67559 -4.80537 55.11937 0 0 0
233 -15.20889 -4.03168 55.46142 0 0 0
234 -15.74218 -3.94106 56.30248 0 0 0
235 -16.27548 -3.16737 56.64454 0 0 0
236 -16.80878 -3.07675 57.48560 0 0 0
237 -17.34208 -2.30307 57.82765 0 0 0
238 -17.87537 -2.21245 58.66871 0 0 0
239 -18.40867 -1.43876 59.01076 0 0 0
240 -18.61620 -1.57841 59.97897 0 0 0
241 -18.82373 -2.18345 60.74764 0 0 0
242 -19.03126 -1.82029 61.65596 0 0 0
243 -19.23878 -2.42534 62.42463 0 0 0
244 -19.44631 -2.06217 63.33295 0 0 0
245 -19.65384 -2.66722 64.10162 0 0 0
246 -19.86137 -2.30405 65.00994 0 0 0
247 -20.06890 -2.90910 65.77860 0 0 0
248 -20.27642 -2.54593 66.68692 0 0 0
249 -20.48395 -3.15098 67.45559 0 0 0
250 -20.69148 -2.78781 68.36391 0 0 0
251 -20.89901 -3.39286 69.13258 0 0 0
252 -21.10653 -3.02970 70.04090 0 0 0
253 -21.31406 -3.63474 70.80957 0 0 0
254 -21.52159 -3.27158 71.71789 0 0 0
255 -21.72912 -3.87662 72.48656 0 0 0
256 -21.93665 -3.51346 73.39488 0 0 0
257 -22.14417 -4.11850 74.16355 0 0 0
258 -19.26204 -1.36723 58.49438 0 0 0
259 -20.11540 -1.04710 58.08294 0 0 0
260 -20.96877 -1.24334 57.59997 0 0 0
261 -21.82213 -0.92321 57.18854 0 0 0
262 -22.67550 -1.11945 56.70557 0 0 0
263 -23.52886 -0.79932 56.29413 0 0 0
264 -24.38223 -0.99557 55.81117 0 0 0
265 -25.23559 -0.67543 55.39973 0 0 0
266 -26.08896 -0.87168 54.91677 0 0 0
267 -26.94232 -0.55154 54.50533 0 0 0
268 -27.79569 -0.74779 54.02236 0 0 0
269 -28.64905 -0.42765 53.61092 0 0 0
270 -29.50242 -0.62390 53.12796 0 0 0
271 -30.35578 -0.30376 52.71652 0 0 0
272 -31.20915 -0.50001 52.23356 0 0 0
273 -32.06251 -0.17987 51.82212 0 0 0
274 -32.91588 -0.37612 51.33915 0 0 0
275 -33.76924 -0.05599 50.92772 0 0 0
276 -17.88183 -0.59585 58.90147 0 0 0
277 -17.35500 0.18878 59.22828 0 0 0
278 -16.82816 0.86412 58.71218 0 0 0
279 -16.30132 1.64874 59.03899 0 0 0
280 -15.77448 2.32408 58.52289 0 0 0
281 -15.24765 3.10871 58.84970 0 0 0
282 -14.72081 3.78404 58.33360 0 0 0
283 -14.19397 4.56867 58.66041 0 0 0
284 -13.66713 5.24401 58.14431 0 0 0
285 -13.14030 6.02863 58.47111 0 0 0
286 -12.61346 6.70397 57.95501 0 0 0
287 -12.08662 7.48860 58.28182 0 0 0
288 -11.55978 8.16394 57.76572 0 0 0
289 -11.03294 8.94856 58.09253 0 0 0
290 -10.50611 9.62390 57.57643 0 0 0
291 -9.97927 10.40853 57.90324 0 0 0
292 -9.45243 11.08386 57.38714 0 0 0
293 -8.92559 11.86849 57.71395 0 0 0
ITEM: TIMESTEP
1000
ITEM: NUMBER OF ATOMS
293
ITEM: BOX BOUNDS pp pp pp
-1.0000000000000000e+03 1.0000000000000000e+03
-1.0000000000000000e+03 1.0000000000000000e+03
-1.0000000000000000e+03 1.0000000000000000e+03
ITEM: ATOMS id x y z ix iy iz
1 -4.20624 -0.06926 3.78010 0 0 0
2 -3.50138 -0.27919 4.48700 0 0 0
3 -2.76617 -0.08556 5.01030 0 0 0
4 -1.70989 -0.05418 5.33646 0 0 0
5 -1.14547 0.53640 5.92059 0 0 0
6 -1.25456 0.19510 6.94441 0 0 0
7 -1.55511 -0.48733 7.57119 0 0 0
8 -1.19653 -0.95408 8.34826 0 0 0
9 -0.81971 -0.72505 9.18862 0 0 0
10 -0.44529 -0.80373 10.13118 0 0 0
11 -0.40654 -1.29280 10.94206 0 0 0
12 0.14480 -2.04418 11.12022 0 0 0
13 0.03876 -2.78437 11.73123 0 0 0
14 -0.29882 -2.99493 12.59061 0 0 0
15 -0.57643 -2.82370 13.58638 0 0 0
16 -0.27725 -2.21616 14.31756 0 0 0
17 -0.57139 -1.36462 14.71793 0 0 0
18 -0.66386 -1.13749 15.66358 0 0 0
19 -0.92817 -2.08958 15.81184 0 0 0
20 -0.75959 -1.89297 16.78308 0 0 0
21 -0.92317 -0.92994 16.66060 0 0 0
22 -0.05114 -0.44669 17.12385 0 0 0
23 -0.43730 0.42527 17.22888 0 0 0
24 -0.20493 1.14877 17.84253 0 0 0
25 0.60919 1.19837 18.39953 0 0 0
26 0.85015 2.07423 18.76240 0 0 0
27 1.41877 2.55811 19.39659 0 0 0
28 1.16472 2.94063 20.32149 0 0 0
29 1.44051 3.47341 21.17699 0 0 0
30 1.30770 4.42187 21.51349 0 0 0
31 1.32178 4.73466 22.43111 0 0 0
32 1.83537 4.78061 23.27305 0 0 0
33 2.11770 4.24316 24.04339 0 0 0
34 1.41985 3.69398 24.45929 0 0 0
35 1.42588 4.30397 25.26506 0 0 0
36 1.42266 4.87588 26.04688 0 0 0
37 1.65922 5.75052 26.21311 0 0 0
38 -0.56873 -2.85516 16.43037 0 0 0
39 0.40253 -2.68691 16.66984 0 0 0
40 1.22317 -2.40192 17.15605 0 0 0
41 2.12391 -2.30341 17.71114 0 0 0
42 2.45322 -2.82705 16.90228 0 0 0
43 2.85723 -3.72571 16.90063 0 0 0
44 2.87658 -4.70752 16.50680 0 0 0
45 3.05205 -5.53507 17.05447 0 0 0
46 3.95104 -5.49767 17.53492 0 0 0
47 4.51083 -5.51233 16.70712 0 0 0
48 4.54317 -6.42348 16.50795 0 0 0
49 5.14281 -7.06431 15.95707 0 0 0
50 5.96165 -7.62486 15.91939 0 0 0
51 6.96419 -7.89214 15.73534 0 0 0
52 7.92009 -7.75216 15.62224 0 0 0
53 8.69901 -8.31471 15.76709 0 0 0
54 9.73216 -8.27873 15.67887 0 0 0
55 9.55990 -9.00557 14.98690 0 0 0
56 -1.64730 -2.69263 16.02316 0 0 0
57 -2.59521 -2.75935 16.30185 0 0 0
58 -3.58938 -2.56919 16.47712 0 0 0
59 -4.55887 -2.53261 16.15208 0 0 0
60 -5.49458 -2.73528 15.68868 0 0 0
61 -5.71756 -2.74797 16.68571 0 0 0
62 -6.43016 -3.51724 16.67781 0 0 0
63 -7.37239 -3.32449 16.69102 0 0 0
64 -8.10028 -3.60437 17.25855 0 0 0
65 -8.42533 -4.54322 17.08621 0 0 0
66 -9.15651 -5.06237 17.54491 0 0 0
67 -9.93163 -5.44855 17.93427 0 0 0
68 -10.80212 -6.02875 17.86653 0 0 0
69 -11.84980 -5.95773 17.70575 0 0 0
70 -12.70212 -5.53022 17.78711 0 0 0
71 -13.59185 -5.70025 18.21855 0 0 0
72 -14.55796 -5.98549 18.33899 0 0 0
73 -15.42446 -6.44990 18.46927 0 0 0
74 -16.32035 -6.38216 18.90742 0 0 0
75 -16.31041 -7.24758 18.40816 0 0 0
76 -16.97107 -7.83739 18.10120 0 0 0
77 -16.46709 -8.63280 17.84351 0 0 0
78 -15.85943 -9.33701 17.72234 0 0 0
79 -15.21964 -9.59358 17.08032 0 0 0
80 -15.38058 -10.48581 16.60229 0 0 0
81 -16.17773 -10.87599 16.23768 0 0 0
82 -16.75332 -11.60416 16.52753 0 0 0
83 -17.56897 -12.08710 16.75126 0 0 0
84 -18.03296 -12.66935 16.08031 0 0 0
85 -18.26192 -13.60625 15.99969 0 0 0
86 -17.75564 -14.40079 16.37689 0 0 0
87 -17.57022 -14.96973 17.19449 0 0 0
88 -18.23280 -15.68962 17.33716 0 0 0
89 -18.53103 -16.64727 17.17696 0 0 0
90 -19.09116 -17.28109 16.64217 0 0 0
91 -19.52829 -17.50366 15.82672 0 0 0
92 -19.99823 -18.18452 15.19312 0 0 0
93 -17.30819 -6.49068 18.99509 0 0 0
94 -18.23247 -5.98435 19.01028 0 0 0
95 -19.22265 -5.74715 19.07908 0 0 0
96 -20.13401 -5.52300 18.60690 0 0 0
97 -20.80133 -5.15766 18.04718 0 0 0
98 -21.69328 -5.18409 17.69788 0 0 0
99 -22.07985 -5.48475 16.83187 0 0 0
100 -22.51047 -4.64585 16.29965 0 0 0
101 -22.62225 -4.03603 15.40408 0 0 0
102 -23.23615 -3.31886 15.10624 0 0 0
103 -24.05786 -3.40121 14.55828 0 0 0
104 -24.34039 -2.95149 13.72505 0 0 0
105 -24.14669 -2.39364 12.99971 0 0 0
106 -23.84776 -1.74261 12.28154 0 0 0
107 -23.21050 -1.47385 11.55967 0 0 0
108 -23.05068 -0.80761 10.89711 0 0 0
109 -23.33440 0.10949 10.87672 0 0 0
110 -22.38929 0.06922 10.60734 0 0 0
111 -16.41380 -5.79991 19.74333 0 0 0
112 -16.96766 -5.19431 20.25202 0 0 0
113 -17.14378 -5.30708 21.16181 0 0 0
114 -17.06241 -5.23335 22.14815 0 0 0
115 -16.97476 -5.48986 23.12905 0 0 0
116 -17.18776 -5.94562 24.04692 0 0 0
117 -17.09104 -5.68027 24.94318 0 0 0
118 -17.25719 -5.39888 25.80045 0 0 0
119 -17.16756 -4.91958 26.68708 0 0 0
120 -17.47003 -4.85607 27.63268 0 0 0
121 -17.51138 -4.83662 28.60286 0 0 0
122 -17.49361 -4.84277 29.55817 0 0 0
123 -17.40306 -5.22594 30.39632 0 0 0
124 -16.80085 -5.89725 30.68210 0 0 0
125 -16.83493 -5.68174 31.61715 0 0 0
126 -16.62714 -5.85164 32.59541 0 0 0
127 -16.75970 -5.28745 33.36798 0 0 0
128 -16.90001 -4.59778 33.99763 0 0 0
129 -17.42710 -3.84503 34.41283 0 0 0
130 -18.26877 -3.80289 34.85299 0 0 0
131 -19.26085 -4.01494 35.03073 0 0 0
132 -20.09424 -3.66218 35.14550 0 0 0
133 -21.04039 -3.54373 35.05582 0 0 0
134 -21.94866 -3.39192 34.92427 0 0 0
135 -22.88689 -3.00494 35.15461 0 0 0
136 -23.81777 -2.71779 34.66355 0 0 0
137 -24.69455 -2.38401 34.32695 0 0 0
138 -25.49587 -2.65667 34.91077 0 0 0
139 -26.28393 -2.99571 34.38930 0 0 0
140 -26.95478 -3.47647 34.96818 0 0 0
141 -27.89511 -3.26148 35.08781 0 0 0
142 -28.70825 -2.87576 34.81140 0 0 0
143 -29.04837 -2.01580 35.20665 0 0 0
144 -29.22681 -2.15354 36.28818 0 0 0
145 -30.16146 -1.88351 36.15729 0 0 0
146 -30.64408 -1.63484 37.01368 0 0 0
147 -31.08257 -1.17643 37.76772 0 0 0
148 -17.13858 -2.88439 34.86014 0 0 0
149 -16.95193 -2.16289 34.12399 0 0 0
150 -16.48366 -1.32728 33.97441 0 0 0
151 -16.55953 -0.79480 34.78732 0 0 0
152 -16.05637 0.06063 34.60761 0 0 0
153 -15.33832 0.53159 34.07538 0 0 0
154 -15.74108 0.91142 33.27234 0 0 0
155 -15.54104 1.42075 32.43742 0 0 0
156 -14.87313 1.96950 31.91070 0 0 0
157 -14.85454 2.86741 32.32612 0 0 0
158 -15.34074 3.68928 32.48294 0 0 0
159 -14.98692 4.53320 32.05664 0 0 0
160 -15.46708 4.93474 31.28228 0 0 0
161 -15.30150 5.83514 30.97235 0 0 0
162 -14.91368 5.87556 31.88182 0 0 0
163 -15.69889 5.75622 32.48066 0 0 0
164 -15.68037 6.11808 33.35763 0 0 0
165 -16.00310 5.87634 34.30089 0 0 0
166 -17.42163 -4.79778 34.95550 0 0 0
167 -16.48518 -4.66346 35.29554 0 0 0
168 -15.89312 -4.46889 36.16632 0 0 0
169 -15.14344 -4.38841 36.78844 0 0 0
170 -14.58559 -4.66987 37.53012 0 0 0
171 -14.08087 -4.85454 38.34858 0 0 0
172 -14.07603 -4.81637 39.36967 0 0 0
173 -14.00419 -5.22573 40.28350 0 0 0
174 -13.49487 -5.20309 41.12305 0 0 0
175 -13.66576 -5.71514 42.02572 0 0 0
176 -13.28168 -6.44513 42.51711 0 0 0
177 -12.42224 -6.45319 43.01008 0 0 0
178 -12.17529 -6.80612 43.84291 0 0 0
179 -11.97873 -6.91462 44.77597 0 0 0
180 -11.51901 -7.64748 45.29551 0 0 0
181 -10.80874 -7.49058 46.02549 0 0 0
182 -10.36148 -7.97749 46.74082 0 0 0
183 -9.49483 -7.87915 47.19049 0 0 0
184 -9.31994 -7.05654 47.65837 0 0 0
185 -8.45348 -6.74076 47.40645 0 0 0
186 -7.68261 -7.06553 47.02865 0 0 0
187 -6.87886 -6.51397 47.25648 0 0 0
188 -6.09957 -6.02336 47.61411 0 0 0
189 -5.19959 -5.53408 47.64841 0 0 0
190 -5.18839 -4.56921 47.66233 0 0 0
191 -4.55966 -4.26516 48.35664 0 0 0
192 -4.07521 -3.89005 47.56738 0 0 0
193 -3.29176 -3.39265 47.33747 0 0 0
194 -2.55032 -3.48370 46.72827 0 0 0
195 -2.72934 -3.83330 45.80178 0 0 0
196 -2.05230 -4.52260 45.46344 0 0 0
197 -1.13186 -4.07595 45.31977 0 0 0
198 -0.38920 -3.79897 45.86474 0 0 0
199 0.41804 -3.36932 46.28473 0 0 0
200 1.16352 -2.75848 45.97339 0 0 0
201 1.95284 -2.53749 45.42869 0 0 0
202 2.12077 -3.48285 45.05101 0 0 0
203 -8.72105 -7.75102 47.90448 0 0 0
204 -8.27785 -8.60168 47.95426 0 0 0
205 -8.08368 -8.93109 48.82595 0 0 0
206 -7.68134 -9.51772 49.56306 0 0 0
207 -7.31037 -10.21582 48.92539 0 0 0
208 -6.80072 -11.09049 49.00010 0 0 0
209 -6.77732 -11.96575 49.53339 0 0 0
210 -6.96373 -12.87786 49.81282 0 0 0
211 -6.93276 -13.84527 49.74672 0 0 0
212 -7.09265 -14.51259 49.08928 0 0 0
213 -7.46234 -15.42014 49.35226 0 0 0
214 -6.97909 -16.16572 49.51670 0 0 0
215 -6.24597 -16.87615 49.53634 0 0 0
216 -6.38331 -17.49881 48.79829 0 0 0
217 -5.88831 -18.32784 48.84258 0 0 0
218 -6.09895 -18.04536 49.79684 0 0 0
219 -5.76859 -18.75842 50.47927 0 0 0
220 -5.20585 -18.96542 49.69571 0 0 0
221 -9.75779 -6.17135 47.71992 0 0 0
222 -10.27927 -6.20695 48.55790 0 0 0
223 -10.51071 -5.72474 49.36605 0 0 0
224 -11.42591 -5.70597 49.93836 0 0 0
225 -11.40726 -4.79473 50.43969 0 0 0
226 -12.02322 -5.21725 51.05014 0 0 0
227 -12.73546 -4.89311 51.83377 0 0 0
228 -12.56080 -5.26305 52.76985 0 0 0
229 -13.13206 -5.19493 53.56850 0 0 0
230 -13.87767 -4.79304 53.96048 0 0 0
231 -14.60818 -4.72854 54.61370 0 0 0
232 -15.05306 -4.33404 55.42607 0 0 0
233 -15.24902 -4.04912 56.32598 0 0 0
234 -16.12483 -3.53009 56.56345 0 0 0
235 -17.01199 -3.65110 56.82005 0 0 0
236 -17.59592 -2.89480 56.91258 0 0 0
237 -18.11262 -2.48544 57.74848 0 0 0
238 -18.97061 -2.64136 58.22124 0 0 0
239 -19.02747 -1.71915 57.97822 0 0 0
240 -18.91109 -1.63079 58.94859 0 0 0
241 -18.98396 -2.08628 59.83443 0 0 0
242 -19.24357 -2.33273 60.73787 0 0 0
243 -19.51828 -2.69343 61.57619 0 0 0
244 -19.56297 -3.37204 62.30732 0 0 0
245 -20.01299 -3.34369 63.09789 0 0 0
246 -20.06999 -2.94446 64.01576 0 0 0
247 -20.22592 -3.65135 64.70255 0 0 0
248 -19.72414 -3.69600 65.55079 0 0 0
249 -20.20786 -3.57776 66.33600 0 0 0
250 -20.22789 -3.48751 67.31749 0 0 0
251 -20.01633 -3.40213 68.26446 0 0 0
252 -19.89257 -3.80862 69.11953 0 0 0
253 -19.38416 -3.26588 69.76737 0 0 0
254 -19.15730 -2.75229 70.57429 0 0 0
255 -18.98541 -2.73656 71.48754 0 0 0
256 -18.93965 -3.36048 72.27432 0 0 0
257 -19.29338 -3.89244 73.08348 0 0 0
258 -19.79581 -1.78354 57.28122 0 0 0
259 -20.71770 -2.11117 57.23930 0 0 0
260 -21.66180 -1.79400 57.52452 0 0 0
261 -22.11710 -1.95160 58.38082 0 0 0
262 -23.02276 -1.68401 58.38054 0 0 0
263 -23.75833 -1.10715 58.17211 0 0 0
264 -24.47942 -1.76768 58.06949 0 0 0
265 -25.51274 -1.73718 57.94574 0 0 0
266 -25.92700 -1.14353 57.37994 0 0 0
267 -25.70507 -0.40609 56.79009 0 0 0
268 -26.05198 0.55729 56.63750 0 0 0
269 -26.31281 0.22238 55.80671 0 0 0
270 -27.08539 0.76413 55.76072 0 0 0
271 -26.92461 1.55065 55.19686 0 0 0
272 -27.66723 1.79253 54.66089 0 0 0
273 -28.48356 1.26224 54.51601 0 0 0
274 -29.13900 0.56832 54.77203 0 0 0
275 -28.97269 -0.45132 54.91386 0 0 0
276 -18.11927 -1.23664 57.60990 0 0 0
277 -17.67501 -0.72878 56.75956 0 0 0
278 -17.42998 -0.16141 55.95332 0 0 0
279 -16.68784 0.49475 55.62235 0 0 0
280 -16.50895 1.47649 55.63525 0 0 0
281 -16.71297 2.38730 55.89350 0 0 0
282 -17.57314 2.81139 55.57652 0 0 0
283 -18.02158 3.54955 56.09737 0 0 0
284 -18.13741 4.19116 56.81986 0 0 0
285 -17.88411 4.94134 57.46862 0 0 0
286 -17.20604 5.45806 57.92898 0 0 0
287 -16.46263 5.98737 58.38447 0 0 0
288 -15.59685 6.39623 58.10398 0 0 0
289 -14.79447 5.77609 58.36092 0 0 0
290 -14.02457 6.37815 58.43963 0 0 0
291 -14.51568 7.16170 58.01423 0 0 0
292 -15.43334 7.56341 58.12210 0 0 0
293 -15.66110 8.49607 58.01906 0 0 0
ITEM: TIMESTEP
2000
ITEM: NUMBER OF ATOMS
293
ITEM: BOX BOUNDS pp pp pp
-1.0000000000000000e+03 1.0000000000000000e+03
-1.0000000000000000e+03 1.0000000000000000e+03
-1.0000000000000000e+03 1.0000000000000000e+03
ITEM: ATOMS id x y z ix iy iz
1 -3.52212 -1.04947 6.91365 0 0 0
2 -4.04372 -0.43689 7.48267 0 0 0
3 -3.69341 -0.41302 8.36429 0 0 0
4 -2.91240 -0.68600 8.81856 0 0 0
5 -1.93814 -0.50822 8.74657 0 0 0
6 -1.77968 0.34629 9.28931 0 0 0
7 -0.89340 0.27720 9.66332 0 0 0
8 -0.00303 -0.03810 9.87827 0 0 0
9 0.30322 -0.94077 9.88547 0 0 0
10 0.75005 -1.65929 10.30055 0 0 0
11 0.53569 -1.69077 11.24663 0 0 0
12 0.53774 -1.15908 11.98383 0 0 0
13 0.06984 -0.74990 12.68230 0 0 0
14 -0.90163 -0.60033 12.73207 0 0 0
15 -1.27436 -0.96432 13.55980 0 0 0
16 -1.82182 -1.00878 14.49058 0 0 0
17 -2.20230 -1.86285 14.73924 0 0 0
18 -2.02809 -2.67703 15.27197 0 0 0
19 -1.50102 -2.18926 16.07453 0 0 0
20 -1.22027 -1.25613 16.26662 0 0 0
21 -0.40929 -0.72219 16.07945 0 0 0
22 0.26603 -0.03745 16.47361 0 0 0
23 0.68846 0.95744 16.49866 0 0 0
24 1.12245 1.60446 17.15079 0 0 0
25 0.65933 2.33457 17.50585 0 0 0
26 0.34380 2.27618 18.45165 0 0 0
27 0.00587 2.62490 19.24763 0 0 0
28 -0.56089 2.94019 19.99216 0 0 0
29 -0.58785 3.54276 20.78530 0 0 0
30 0.37611 3.60603 20.95071 0 0 0
31 0.22067 3.75411 21.91757 0 0 0
32 0.93034 4.23689 22.29992 0 0 0
33 1.81602 4.62108 22.34653 0 0 0
34 2.37268 5.47102 22.24912 0 0 0
35 2.38000 6.02587 23.04520 0 0 0
36 3.13300 6.53323 23.40893 0 0 0
37 3.90230 6.06576 23.13478 0 0 0
38 -0.63040 -1.98170 15.75371 0 0 0
39 0.28246 -1.95058 15.41919 0 0 0
40 1.25406 -2.09114 15.33292 0 0 0
41 2.15453 -2.41890 14.84989 0 0 0
42 3.13334 -2.07775 14.96661 0 0 0
43 4.01463 -1.79803 15.33086 0 0 0
44 5.04150 -1.78665 15.65980 0 0 0
45 5.47674 -2.70597 15.45248 0 0 0
46 6.25160 -3.16443 15.62496 0 0 0
47 7.09772 -3.51140 15.22771 0 0 0
48 7.81064 -4.18465 15.32130 0 0 0
49 8.15079 -5.10329 15.47074 0 0 0
50 8.05909 -6.06437 15.50273 0 0 0
51 8.49220 -6.78913 15.03961 0 0 0
52 8.03495 -7.48440 15.59672 0 0 0
53 7.27040 -8.02095 15.92265 0 0 0
54 6.46432 -7.53178 16.11113 0 0 0
55 5.68546 -7.04849 15.86667 0 0 0
56 -2.47339 -2.30838 16.24556 0 0 0
57 -3.22805 -2.76079 16.71691 0 0 0
58 -4.21073 -2.91315 16.74901 0 0 0
59 -4.63414 -3.28287 17.50567 0 0 0
60 -5.15703 -3.95402 17.96066 0 0 0
61 -6.00706 -3.60437 17.47882 0 0 0
62 -6.28515 -2.88792 18.08890 0 0 0
63 -7.21112 -3.21330 18.38690 0 0 0
64 -8.08667 -3.48981 18.65385 0 0 0
65 -8.97577 -2.91642 18.80442 0 0 0
66 -9.90384 -2.63152 18.81322 0 0 0
67 -10.70708 -2.19933 19.16216 0 0 0
68 -11.54061 -2.47377 19.50928 0 0 0
69 -12.19452 -3.04856 19.06586 0 0 0
70 -12.76412 -3.70890 19.54782 0 0 0
71 -13.61495 -4.18683 19.85523 0 0 0
72 -13.81621 -4.72516 19.06151 0 0 0
73 -14.80536 -4.78971 19.15176 0 0 0
74 -15.42435 -5.32062 19.74923 0 0 0
75 -16.08923 -6.03340 19.75491 0 0 0
76 -16.34480 -6.86455 19.46637 0 0 0
77 -16.83478 -7.72333 19.48434 0 0 0
78 -16.22540 -8.35951 19.90816 0 0 0
79 -16.45368 -9.34045 20.13480 0 0 0
80 -16.33331 -9.99891 19.44520 0 0 0
81 -16.31725 -9.88814 18.48903 0 0 0
82 -16.06432 -10.78828 18.50200 0 0 0
83 -15.66520 -11.61967 18.53334 0 0 0
84 -15.71344 -12.46285 18.05773 0 0 0
85 -16.13218 -12.77917 17.21793 0 0 0
86 -15.65276 -12.95001 16.40111 0 0 0
87 -15.74323 -13.42139 15.56634 0 0 0
88 -16.10175 -13.54352 14.67728 0 0 0
89 -15.27513 -14.09404 14.88882 0 0 0
90 -14.55257 -14.11149 14.24377 0 0 0
91 -14.37880 -14.94497 13.75442 0 0 0
92 -13.66664 -15.53911 14.16482 0 0 0
93 -16.15400 -4.86552 19.31283 0 0 0
94 -16.93050 -4.69112 18.62275 0 0 0
95 -17.75752 -4.48847 18.10616 0 0 0
96 -18.35589 -3.93187 17.48240 0 0 0
97 -19.20774 -3.96571 17.00168 0 0 0
98 -20.19123 -3.86625 16.64122 0 0 0
99 -21.18346 -3.81938 16.74221 0 0 0
100 -21.75338 -3.76580 15.96841 0 0 0
101 -22.49479 -3.17287 15.85020 0 0 0
102 -23.37743 -3.70928 16.08518 0 0 0
103 -23.90830 -4.11848 15.32398 0 0 0
104 -24.55337 -4.28830 14.65463 0 0 0
105 -24.70918 -3.53288 14.04965 0 0 0
106 -25.16049 -3.03434 14.72911 0 0 0
107 -24.70832 -2.28236 14.34441 0 0 0
108 -23.96376 -2.64600 13.84509 0 0 0
109 -23.03241 -2.86949 14.15722 0 0 0
110 -22.41476 -3.44914 14.56955 0 0 0
111 -15.22824 -5.82368 20.51576 0 0 0
112 -15.18898 -5.65395 21.53785 0 0 0
113 -15.02093 -5.60359 22.58272 0 0 0
114 -14.69694 -5.73948 23.50240 0 0 0
115 -15.63012 -5.78632 23.73124 0 0 0
116 -16.33583 -5.24825 24.16280 0 0 0
117 -15.96689 -5.05051 25.04289 0 0 0
118 -15.98791 -4.02743 25.11623 0 0 0
119 -15.16648 -3.64888 25.45228 0 0 0
120 -14.38045 -3.69714 26.09904 0 0 0
121 -14.35174 -3.62348 27.14042 0 0 0
122 -14.33178 -4.32362 27.80426 0 0 0
123 -14.24717 -4.42379 28.73471 0 0 0
124 -14.48626 -4.56689 29.74512 0 0 0
125 -15.16568 -4.45731 30.51871 0 0 0
126 -15.52442 -4.72349 31.42004 0 0 0
127 -15.43928 -4.76043 32.45902 0 0 0
128 -14.63712 -4.69054 33.09760 0 0 0
129 -14.62249 -4.34626 33.99761 0 0 0
130 -15.26806 -3.79980 33.53887 0 0 0
131 -16.07142 -3.74040 34.19416 0 0 0
132 -16.96194 -3.50295 34.54865 0 0 0
133 -17.85722 -3.78082 34.98930 0 0 0
134 -18.72275 -3.37542 34.80785 0 0 0
135 -19.60716 -3.17573 34.57089 0 0 0
136 -20.48497 -3.07725 34.95245 0 0 0
137 -21.49686 -2.88445 35.04621 0 0 0
138 -22.12916 -2.21503 34.74858 0 0 0
139 -22.71496 -1.45462 34.95175 0 0 0
140 -23.46881 -1.74294 35.56894 0 0 0
141 -24.15581 -2.52199 35.97097 0 0 0
142 -24.97236 -2.12012 36.35551 0 0 0
143 -25.87999 -1.88153 36.60553 0 0 0
144 -26.24275 -2.77044 36.39546 0 0 0
145 -26.72491 -2.79239 35.52638 0 0 0
146 -26.87817 -2.60547 34.59456 0 0 0
147 -26.17016 -3.22338 34.22223 0 0 0
148 -13.81359 -3.74960 34.19526 0 0 0
149 -13.13343 -3.19583 33.85231 0 0 0
150 -13.12424 -2.57458 33.12585 0 0 0
151 -13.76494 -1.87429 32.89355 0 0 0
152 -14.19119 -1.35156 33.55823 0 0 0
153 -13.69954 -0.50905 33.52226 0 0 0
154 -13.10042 0.08177 33.96729 0 0 0
155 -13.79032 0.79921 34.02182 0 0 0
156 -13.83349 1.80634 34.08882 0 0 0
157 -13.37082 2.56446 34.64215 0 0 0
158 -13.74645 3.29975 34.15518 0 0 0
159 -14.22252 4.05006 33.77238 0 0 0
160 -15.00895 3.97975 33.24483 0 0 0
161 -15.33929 4.84625 32.87998 0 0 0
162 -15.49762 5.71484 33.38912 0 0 0
163 -15.14142 6.67668 33.16261 0 0 0
164 -15.79723 7.27718 33.58629 0 0 0
165 -15.88939 7.07098 32.65873 0 0 0
166 -14.97152 -4.80720 34.79923 0 0 0
167 -15.35700 -4.69675 35.71127 0 0 0
168 -15.24871 -4.91224 36.64869 0 0 0
169 -15.52465 -4.78823 37.56273 0 0 0
170 -15.22062 -4.52981 38.48472 0 0 0
171 -14.51639 -5.13739 38.82176 0 0 0
172 -14.41070 -5.86479 39.54079 0 0 0
173 -14.20922 -6.55580 40.14281 0 0 0
174 -13.91352 -6.82528 41.08800 0 0 0
175 -13.58584 -7.18296 41.93189 0 0 0
176 -12.72338 -7.33382 42.45933 0 0 0
177 -12.56818 -7.82912 43.30992 0 0 0
178 -11.73991 -7.41702 43.61986 0 0 0
179 -11.44759 -8.33701 43.41951 0 0 0
180 -11.11831 -8.02918 44.28443 0 0 0
181 -10.75530 -7.51010 44.99158 0 0 0
182 -10.37065 -6.69842 45.48559 0 0 0
183 -10.76463 -6.54394 46.44147 0 0 0
184 -10.45649 -7.08883 47.18015 0 0 0
185 -9.87428 -6.51345 47.78801 0 0 0
186 -8.91055 -6.27929 47.63439 0 0 0
187 -8.17649 -6.35828 47.01512 0 0 0
188 -7.44104 -5.71568 47.26826 0 0 0
189 -6.51330 -5.27710 47.31650 0 0 0
190 -5.65232 -4.83891 47.75192 0 0 0
191 -4.74491 -4.80160 47.31869 0 0 0
192 -3.95154 -4.58469 47.92985 0 0 0
193 -3.76573 -4.66913 48.85736 0 0 0
194 -3.01503 -4.60478 48.31967 0 0 0
195 -2.43869 -3.76235 48.39599 0 0 0
196 -1.67737 -3.74346 47.83119 0 0 0
197 -1.45102 -2.82178 47.70237 0 0 0
198 -0.47884 -2.69161 47.54374 0 0 0
199 0.07967 -1.85289 47.66134 0 0 0
200 0.29131 -0.98923 48.00140 0 0 0
201 0.09270 -0.13754 47.81572 0 0 0
202 -0.64476 0.49132 47.90166 0 0 0
203 -10.96611 -7.73111 46.69480 0 0 0
204 -10.89534 -8.69916 47.01710 0 0 0
205 -10.29564 -8.98840 47.71625 0 0 0
206 -10.41079 -9.43927 48.66165 0 0 0
207 -10.57656 -10.37093 48.27368 0 0 0