ITEM: TIMESTEP
0
ITEM: NUMBER OF ATOMS
497
ITEM: BOX BOUNDS pp pp pp
-1.0000000000000000e+03 1.0000000000000000e+03
-1.0000000000000000e+03 1.0000000000000000e+03
-1.0000000000000000e+03 1.0000000000000000e+03
ITEM: ATOMS id x y z ix iy iz
1 0.00000 0.00000 0.00000 0 0 0
2 0.00000 0.00000 1.00000 0 0 0
3 0.00000 -0.50000 1.86603 0 0 0
4 0.00000 0.00000 2.73205 0 0 0
5 0.00000 -0.50000 3.59808 0 0 0
6 0.00000 0.00000 4.46410 0 0 0
7 0.00000 -0.50000 5.33013 0 0 0
8 0.00000 0.00000 6.19615 0 0 0
9 0.00000 -0.50000 7.06218 0 0 0
10 0.00000 0.00000 7.92820 0 0 0
11 0.00000 -0.50000 8.79423 0 0 0
12 0.00000 0.00000 9.66025 0 0 0
13 0.00000 -0.50000 10.52628 0 0 0
14 0.00000 0.00000 11.39230 0 0 0
15 0.00000 -0.50000 12.25833 0 0 0
16 0.00000 0.00000 13.12436 0 0 0
17 0.00000 -0.50000 13.99038 0 0 0
18 0.00000 0.00000 14.85641 0 0 0
19 0.00000 -0.50000 15.72243 0 0 0
20 0.00000 0.00000 16.58846 0 0 0
21 0.00000 -0.50000 17.45448 0 0 0
22 0.00000 0.00000 18.32051 0 0 0
23 0.00000 -0.50000 19.18653 0 0 0
24 0.00000 0.00000 20.05256 0 0 0
25 0.00000 -0.50000 20.91858 0 0 0
26 0.00000 0.00000 21.78461 0 0 0
27 0.00000 -0.50000 22.65064 0 0 0
28 0.00000 0.00000 23.51666 0 0 0
29 0.00000 -0.50000 24.38269 0 0 0
30 0.00000 0.00000 25.24871 0 0 0
31 0.00000 -0.50000 26.11474 0 0 0
32 0.00000 0.00000 26.98076 0 0 0
33 -0.93454 0.27371 27.20818 0 0 0
34 -1.86908 0.39705 27.54199 0 0 0
35 -2.80362 0.74780 27.60208 0 0 0
36 -3.73815 0.87113 27.93589 0 0 0
37 -4.67269 1.22188 27.99598 0 0 0
38 -5.60723 1.34521 28.32979 0 0 0
39 -6.54177 1.69597 28.38988 0 0 0
40 -7.47631 1.81930 28.72369 0 0 0
41 -8.41085 2.17005 28.78379 0 0 0
42 -9.34538 2.29338 29.11759 0 0 0
43 -10.27992 2.64413 29.17769 0 0 0
44 -11.21446 2.76747 29.51149 0 0 0
45 -12.14900 3.11822 29.57159 0 0 0
46 -13.08354 3.24155 29.90539 0 0 0
47 -14.01808 3.59230 29.96549 0 0 0
48 -14.95261 3.71563 30.29930 0 0 0
49 -15.88715 4.06639 30.35939 0 0 0
50 -16.82169 4.18972 30.69320 0 0 0
51 -17.75623 4.54047 30.75329 0 0 0
52 -18.69077 4.66380 31.08710 0 0 0
53 -19.62531 5.01455 31.14719 0 0 0
54 -20.55985 5.13789 31.48100 0 0 0
55 -21.49438 5.48864 31.54109 0 0 0
56 -22.42892 5.61197 31.87490 0 0 0
57 -23.36346 5.96272 31.93499 0 0 0
58 -24.29800 6.08606 32.26880 0 0 0
59 -25.23254 6.43681 32.32890 0 0 0
60 -26.16708 6.56014 32.66270 0 0 0
61 -27.10161 6.91089 32.72280 0 0 0
62 -28.03615 7.03422 33.05660 0 0 0
63 -28.97069 7.38498 33.11670 0 0 0
64 0.57408 0.81440 26.89601 0 0 0
65 1.14816 1.56207 27.22982 0 0 0
66 1.72224 2.22499 26.74922 0 0 0
67 2.29631 2.97266 27.08303 0 0 0
68 2.87039 3.63558 26.60244 0 0 0
69 3.44447 4.38324 26.93624 0 0 0
70 4.01855 5.04616 26.45565 0 0 0
71 4.59263 5.79383 26.78945 0 0 0
72 5.16671 6.45675 26.30886 0 0 0
73 5.74078 7.20442 26.64266 0 0 0
74 6.31486 7.86734 26.16207 0 0 0
75 6.88894 8.61500 26.49588 0 0 0
76 7.46302 9.27792 26.01528 0 0 0
77 8.03710 10.02559 26.34909 0 0 0
78 8.61118 10.68851 25.86849 0 0 0
79 9.18525 11.43618 26.20230 0 0 0
80 9.75933 12.09910 25.72170 0 0 0
81 10.33341 12.84676 26.05551 0 0 0
82 10.90749 13.50968 25.57491 0 0 0
83 11.48157 14.25735 25.90872 0 0 0
84 12.05565 14.92027 25.42812 0 0 0
85 12.62972 15.66794 25.76193 0 0 0
86 13.20380 16.33086 25.28134 0 0 0
87 13.77788 17.07852 25.61514 0 0 0
88 14.35196 17.74144 25.13455 0 0 0
89 14.92604 18.48911 25.46835 0 0 0
90 15.50012 19.15203 24.98776 0 0 0
91 16.07420 19.89970 25.32156 0 0 0
92 16.64827 20.56262 24.84097 0 0 0
93 17.22235 21.31028 25.17478 0 0 0
94 17.79643 21.97320 24.69418 0 0 0
95 0.36046 -0.58740 27.70535 0 0 0
96 0.72092 -1.45841 28.03915 0 0 0
97 1.08138 -1.60482 28.96037 0 0 0
98 1.44184 -2.47582 29.29417 0 0 0
99 1.80230 -2.62224 30.21538 0 0 0
100 2.16276 -3.49324 30.54919 0 0 0
101 2.52322 -3.63965 31.47040 0 0 0
102 2.88368 -4.51065 31.80421 0 0 0
103 3.24414 -4.65707 32.72542 0 0 0
104 3.60460 -5.52807 33.05923 0 0 0
105 3.96506 -5.67448 33.98044 0 0 0
106 4.32552 -6.54548 34.31425 0 0 0
107 4.68598 -6.69190 35.23546 0 0 0
108 5.04644 -7.56290 35.56927 0 0 0
109 5.40690 -7.70931 36.49048 0 0 0
110 5.76736 -8.58031 36.82429 0 0 0
111 6.12782 -8.72673 37.74550 0 0 0
112 6.48828 -9.59773 38.07930 0 0 0
113 6.84874 -9.74414 39.00052 0 0 0
114 7.20920 -10.61514 39.33432 0 0 0
115 7.56966 -10.76156 40.25553 0 0 0
116 7.93012 -11.63256 40.58934 0 0 0
117 8.29058 -11.77897 41.51055 0 0 0
118 8.65104 -12.64997 41.84436 0 0 0
119 9.01150 -12.79639 42.76557 0 0 0
120 9.37196 -13.66739 43.09938 0 0 0
121 9.73242 -13.81380 44.02059 0 0 0
122 10.09288 -14.68480 44.35440 0 0 0
123 10.45334 -14.83122 45.27561 0 0 0
124 10.81380 -15.70222 45.60942 0 0 0
125 11.17426 -15.84863 46.53063 0 0 0
126 10.65466 -16.57477 46.98089 0 0 0
127 10.13505 -17.42876 47.00776 0 0 0
128 9.61545 -17.83248 47.76076 0 0 0
129 9.09585 -18.68647 47.78763 0 0 0
130 8.57624 -19.09019 48.54064 0 0 0
131 8.05664 -19.94418 48.56751 0 0 0
132 7.53704 -20.34790 49.32051 0 0 0
133 7.01743 -21.20188 49.34738 0 0 0
134 6.49783 -21.60561 50.10039 0 0 0
135 5.97822 -22.45959 50.12726 0 0 0
136 5.45862 -22.86332 50.88026 0 0 0
137 4.93902 -23.71730 50.90713 0 0 0
138 4.41941 -24.12103 51.66014 0 0 0
139 3.89981 -24.97501 51.68701 0 0 0
140 3.38021 -25.37873 52.44001 0 0 0
141 2.86060 -26.23272 52.46688 0 0 0
142 2.34100 -26.63644 53.21989 0 0 0
143 1.82140 -27.49043 53.24675 0 0 0
144 1.30179 -27.89415 53.99976 0 0 0
145 0.78219 -28.74814 54.02663 0 0 0
146 0.26258 -29.15186 54.77964 0 0 0
147 -0.25702 -30.00585 54.80650 0 0 0
148 -0.77662 -30.40957 55.55951 0 0 0
149 -1.29623 -31.26355 55.58638 0 0 0
150 -1.81583 -31.66728 56.33939 0 0 0
151 -2.33543 -32.52126 56.36625 0 0 0
152 -2.85504 -32.92499 57.11926 0 0 0
153 -3.37464 -33.77897 57.14613 0 0 0
154 -3.89424 -34.18270 57.89914 0 0 0
155 -4.41385 -35.03668 57.92600 0 0 0
156 -4.93345 -35.44041 58.67901 0 0 0
157 11.09233 -15.00378 47.05932 0 0 0
158 11.01041 -14.53647 47.93961 0 0 0
159 10.92848 -13.54046 47.97504 0 0 0
160 10.84655 -13.07314 48.85533 0 0 0
161 10.76462 -12.07713 48.89076 0 0 0
162 10.68269 -11.60982 49.77105 0 0 0
163 10.60077 -10.61381 49.80648 0 0 0
164 10.51884 -10.14649 50.68677 0 0 0
165 10.43691 -9.15049 50.72220 0 0 0
166 10.35498 -8.68317 51.60249 0 0 0
167 10.27306 -7.68716 51.63793 0 0 0
168 10.19113 -7.21985 52.51821 0 0 0
169 10.10920 -6.22384 52.55365 0 0 0
170 10.02727 -5.75652 53.43393 0 0 0
171 9.94535 -4.76051 53.46937 0 0 0
172 9.86342 -4.29320 54.34965 0 0 0
173 9.78149 -3.29719 54.38509 0 0 0
174 9.69956 -2.82987 55.26538 0 0 0
175 9.61764 -1.83386 55.30081 0 0 0
176 9.53571 -1.36655 56.18110 0 0 0
177 9.45378 -0.37054 56.21653 0 0 0
178 9.37185 0.09678 57.09682 0 0 0
179 9.28992 1.09278 57.13225 0 0 0
180 9.20800 1.56010 58.01254 0 0 0
181 9.12607 2.55611 58.04798 0 0 0
182 9.04414 3.02343 58.92826 0 0 0
183 8.96221 4.01943 58.96370 0 0 0
184 8.88029 4.48675 59.84398 0 0 0
185 8.79836 5.48276 59.87942 0 0 0
186 8.71643 5.95007 60.75970 0 0 0
187 8.63450 6.94608 60.79514 0 0 0
188 12.13676 -16.11397 46.47420 0 0 0
189 13.09927 -16.31554 46.29266 0 0 0
190 14.06177 -16.57354 46.37645 0 0 0
191 15.02427 -16.77511 46.19491 0 0 0
192 15.98678 -17.03312 46.27871 0 0 0
193 16.94928 -17.23469 46.09717 0 0 0
194 17.91178 -17.49269 46.18096 0 0 0
195 18.87429 -17.69426 45.99943 0 0 0
196 19.83679 -17.95226 46.08322 0 0 0
197 20.79929 -18.15384 45.90168 0 0 0
198 21.76180 -18.41184 45.98548 0 0 0
199 22.72430 -18.61341 45.80394 0 0 0
200 23.68680 -18.87141 45.88773 0 0 0
201 24.64931 -19.07298 45.70619 0 0 0
202 25.61181 -19.33099 45.78999 0 0 0
203 26.57431 -19.53256 45.60845 0 0 0
204 27.53682 -19.79056 45.69225 0 0 0
205 28.49932 -19.99213 45.51071 0 0 0
206 29.46182 -20.25013 45.59450 0 0 0
207 30.42433 -20.45170 45.41296 0 0 0
208 31.38683 -20.70971 45.49676 0 0 0
209 32.34933 -20.91128 45.31522 0 0 0
210 33.31184 -21.16928 45.39902 0 0 0
211 34.27434 -21.37085 45.21748 0 0 0
212 35.23684 -21.62886 45.30127 0 0 0
213 36.19935 -21.83043 45.11973 0 0 0
214 37.16185 -22.08843 45.20353 0 0 0
215 38.12435 -22.29000 45.02199 0 0 0
216 39.08686 -22.54800 45.10578 0 0 0
217 40.04936 -22.74957 44.92424 0 0 0
218 41.01186 -23.00758 45.00804 0 0 0
219 41.51439 -22.68753 44.20489 0 0 0
220 42.01691 -22.00880 43.66937 0 0 0
221 42.51943 -22.13320 42.81380 0 0 0
222 43.02195 -21.45447 42.27828 0 0 0
223 43.52447 -21.57888 41.42271 0 0 0
224 44.02700 -20.90014 40.88719 0 0 0
225 44.52952 -21.02455 40.03162 0 0 0
226 45.03204 -20.34581 39.49610 0 0 0
227 45.53456 -20.47022 38.64053 0 0 0
228 46.03708 -19.79148 38.10501 0 0 0
229 46.53961 -19.91589 37.24944 0 0 0
230 47.04213 -19.23715 36.71391 0 0 0
231 47.54465 -19.36156 35.85835 0 0 0
232 48.04717 -18.68282 35.32282 0 0 0
233 48.54969 -18.80723 34.46726 0 0 0
234 49.05221 -18.12849 33.93173 0 0 0
235 49.55474 -18.25290 33.07617 0 0 0
236 50.05726 -17.57416 32.54064 0 0 0
237 50.55978 -17.69857 31.68508 0 0 0
238 51.06230 -17.01983 31.14955 0 0 0
239 51.56482 -17.14424 30.29398 0 0 0
240 52.06735 -16.46550 29.75846 0 0 0
241 52.56987 -16.58991 28.90289 0 0 0
242 53.07239 -15.91117 28.36737 0 0 0
243 53.57491 -16.03558 27.51180 0 0 0
244 54.07743 -15.35684 26.97628 0 0 0
245 54.57996 -15.48125 26.12071 0 0 0
246 55.08248 -14.80251 25.58519 0 0 0
247 55.58500 -14.92692 24.72962 0 0 0
248 56.08752 -14.24818 24.19410 0 0 0
249 56.59004 -14.37259 23.33853 0 0 0
250 41.08631 -24.00271 45.07252 0 0 0
251 41.16076 -24.89677 44.63079 0 0 0
252 41.23520 -25.72635 45.18419 0 0 0
253 41.30965 -26.62040 44.74246 0 0 0
254 41.38410 -27.44998 45.29587 0 0 0
255 41.45854 -28.34403 44.85414 0 0 0
256 41.53299 -29.17361 45.40755 0 0 0
257 41.60744 -30.06766 44.96582 0 0 0
258 41.68188 -30.89724 45.51922 0 0 0
259 41.75633 -31.79129 45.07749 0 0 0
260 41.83078 -32.62087 45.63090 0 0 0
261 41.90522 -33.51492 45.18917 0 0 0
262 41.97967 -34.34450 45.74258 0 0 0
263 42.05412 -35.23855 45.30085 0 0 0
264 42.12857 -36.06813 45.85425 0 0 0
265 42.20301 -36.96218 45.41252 0 0 0
266 42.27746 -37.79176 45.96593 0 0 0
267 42.35191 -38.68581 45.52420 0 0 0
268 42.42635 -39.51539 46.07761 0 0 0
269 42.50080 -40.40944 45.63588 0 0 0
270 42.57525 -41.23902 46.18928 0 0 0
271 42.64969 -42.13307 45.74755 0 0 0
272 42.72414 -42.96265 46.30096 0 0 0
273 42.79859 -43.85670 45.85923 0 0 0
274 42.87303 -44.68628 46.41264 0 0 0
275 42.94748 -45.58033 45.97091 0 0 0
276 43.02193 -46.40991 46.52432 0 0 0
277 43.09637 -47.30396 46.08258 0 0 0
278 43.17082 -48.13354 46.63599 0 0 0
279 43.24527 -49.02759 46.19426 0 0 0
280 43.31971 -49.85717 46.74767 0 0 0
281 41.39877 -22.59085 45.83063 0 0 0
282 41.78567 -22.64125 46.75137 0 0 0
283 42.17257 -21.86906 47.25538 0 0 0
284 42.55947 -21.91946 48.17613 0 0 0
285 42.94637 -21.14727 48.68014 0 0 0
286 43.33328 -21.19766 49.60089 0 0 0
287 43.72018 -20.42548 50.10490 0 0 0
288 44.10708 -20.47587 51.02564 0 0 0
289 44.49398 -19.70368 51.52966 0 0 0
290 44.88088 -19.75408 52.45040 0 0 0
291 45.26779 -18.98189 52.95442 0 0 0
292 45.65469 -19.03229 53.87516 0 0 0
293 46.04159 -18.26010 54.37918 0 0 0
294 46.42849 -18.31050 55.29992 0 0 0
295 46.81539 -17.53831 55.80394 0 0 0
296 47.20230 -17.58871 56.72468 0 0 0
297 47.58920 -16.81652 57.22870 0 0 0
298 47.97610 -16.86692 58.14944 0 0 0
299 48.36300 -16.09473 58.65345 0 0 0
300 48.74990 -16.14512 59.57420 0 0 0
301 49.13681 -15.37294 60.07821 0 0 0
302 49.52371 -15.42333 60.99896 0 0 0
303 49.91061 -14.65114 61.50297 0 0 0
304 50.29751 -14.70154 62.42371 0 0 0
305 50.68442 -13.92935 62.92773 0 0 0
306 51.07132 -13.97975 63.84847 0 0 0
307 51.45822 -13.20756 64.35249 0 0 0
308 51.84512 -13.25796 65.27323 0 0 0
309 52.23202 -12.48577 65.77725 0 0 0
310 52.61893 -12.53617 66.69799 0 0 0
311 53.00583 -11.76398 67.20201 0 0 0
312 52.28792 -11.09297 67.38737 0 0 0
313 51.57001 -10.60454 67.88340 0 0 0
314 50.85210 -9.93076 67.70842 0 0 0
315 50.13419 -9.44233 68.20445 0 0 0
316 49.41628 -8.76854 68.02947 0 0 0
317 48.69838 -8.28011 68.52550 0 0 0
318 47.98047 -7.60632 68.35053 0 0 0
319 47.26256 -7.11790 68.84656 0 0 0
320 46.54465 -6.44411 68.67158 0 0 0
321 45.82674 -5.95568 69.16761 0 0 0
322 45.10883 -5.28189 68.99263 0 0 0
323 44.39092 -4.79346 69.48866 0 0 0
324 43.67301 -4.11968 69.31368 0 0 0
325 42.95511 -3.63125 69.80971 0 0 0
326 42.23720 -2.95746 69.63474 0 0 0
327 41.51929 -2.46903 70.13077 0 0 0
328 40.80138 -1.79524 69.95579 0 0 0
329 40.08347 -1.30681 70.45182 0 0 0
330 39.36556 -0.63303 70.27684 0 0 0
331 38.64765 -0.14460 70.77287 0 0 0
332 37.92975 0.52919 70.59790 0 0 0
333 37.21184 1.01762 71.09393 0 0 0
334 36.49393 1.69141 70.91895 0 0 0
335 35.77602 2.17983 71.41498 0 0 0
336 35.05811 2.85362 71.24000 0 0 0
337 34.34020 3.34205 71.73603 0 0 0
338 33.62229 4.01584 71.56106 0 0 0
339 32.90438 4.50427 72.05708 0 0 0
340 32.18648 5.17805 71.88211 0 0 0
341 31.46857 5.66648 72.37814 0 0 0
342 30.75066 6.34027 72.20316 0 0 0
343 53.72744 -11.33737 66.65677 0 0 0
344 54.44905 -10.69530 66.39789 0 0 0
345 55.17066 -10.59846 65.71239 0 0 0
346 55.89227 -9.95639 65.45351 0 0 0
347 56.61388 -9.85956 64.76802 0 0 0
348 57.33550 -9.21748 64.50913 0 0 0
349 58.05711 -9.12065 63.82364 0 0 0
350 58.77872 -8.47858 63.56476 0 0 0
351 59.50033 -8.38174 62.87926 0 0 0
352 60.22194 -7.73967 62.62038 0 0 0
353 60.94355 -7.64283 61.93489 0 0 0
354 61.66516 -7.00076 61.67600 0 0 0
355 62.38678 -6.90393 60.99051 0 0 0
356 63.10839 -6.26186 60.73163 0 0 0
357 63.83000 -6.16502 60.04613 0 0 0
358 64.55161 -5.52295 59.78725 0 0 0
359 65.27322 -5.42611 59.10176 0 0 0
360 65.99483 -4.78404 58.84287 0 0 0
361 66.71644 -4.68721 58.15738 0 0 0
362 67.43805 -4.04514 57.89850 0 0 0
363 68.15967 -3.94830 57.21300 0 0 0
364 68.88128 -3.30623 56.95412 0 0 0
365 69.60289 -3.20939 56.26863 0 0 0
366 70.32450 -2.56732 56.00974 0 0 0
367 71.04611 -2.47049 55.32425 0 0 0
368 71.76772 -1.82841 55.06537 0 0 0
369 72.48933 -1.73158 54.37987 0 0 0
370 73.21095 -1.08951 54.12099 0 0 0
371 73.93256 -0.99267 53.43550 0 0 0
372 74.65417 -0.35060 53.17661 0 0 0
373 75.37578 -0.25376 52.49112 0 0 0
374 53.38958 -12.08831 68.06662 0 0 0
375 53.77333 -12.80149 68.65322 0 0 0
376 54.15707 -12.65006 69.56416 0 0 0
377 54.54082 -13.36324 70.15077 0 0 0
378 54.92457 -13.21182 71.06171 0 0 0
379 55.30832 -13.92500 71.64831 0 0 0
380 55.69207 -13.77357 72.55925 0 0 0
381 56.07582 -14.48675 73.14586 0 0 0
382 56.45957 -14.33532 74.05680 0 0 0
383 56.84332 -15.04850 74.64341 0 0 0
384 57.22707 -14.89708 75.55434 0 0 0
385 57.61081 -15.61026 76.14095 0 0 0
386 57.99456 -15.45883 77.05189 0 0 0
387 58.37831 -16.17201 77.63850 0 0 0
388 58.76206 -16.02059 78.54943 0 0 0
389 59.14581 -16.73377 79.13604 0 0 0
390 59.52956 -16.58234 80.04698 0 0 0
391 59.91331 -17.29552 80.63359 0 0 0
392 60.29706 -17.14409 81.54452 0 0 0
393 60.68081 -17.85728 82.13113 0 0 0
394 61.06456 -17.70585 83.04207 0 0 0
395 61.44830 -18.41903 83.62868 0 0 0
396 61.83205 -18.26760 84.53962 0 0 0
397 62.21580 -18.98078 85.12622 0 0 0
398 62.59955 -18.82936 86.03716 0 0 0
399 62.98330 -19.54254 86.62377 0 0 0
400 63.36705 -19.39111 87.53471 0 0 0
401 63.75080 -20.10429 88.12131 0 0 0
402 64.13455 -19.95286 89.03225 0 0 0
403 64.51830 -20.66605 89.61886 0 0 0
404 64.90204 -20.51462 90.52980 0 0 0
405 64.21078 -20.72215 91.22195 0 0 0
406 63.51951 -21.24796 91.71760 0 0 0
407 62.82824 -21.08162 92.42079 0 0 0
408 62.13697 -21.60742 92.91645 0 0 0
409 61.44570 -21.44108 93.61964 0 0 0
410 60.75443 -21.96688 94.11529 0 0 0
411 60.06316 -21.80054 94.81848 0 0 0
412 59.37189 -22.32635 95.31413 0 0 0
413 58.68062 -22.16000 96.01732 0 0 0
414 57.98935 -22.68581 96.51298 0 0 0
415 57.29808 -22.51946 97.21617 0 0 0
416 56.60681 -23.04527 97.71182 0 0 0
417 55.91554 -22.87892 98.41501 0 0 0
418 55.22427 -23.40473 98.91066 0 0 0
419 54.53300 -23.23838 99.61385 0 0 0
420 53.84173 -23.76419 100.10951 0 0 0
421 53.15046 -23.59785 100.81270 0 0 0
422 52.45919 -24.12365 101.30835 0 0 0
423 51.76792 -23.95731 102.01154 0 0 0
424 51.07665 -24.48311 102.50719 0 0 0
425 50.38538 -24.31677 103.21038 0 0 0
426 49.69411 -24.84258 103.70604 0 0 0
427 49.00284 -24.67623 104.40923 0 0 0
428 48.31157 -25.20204 104.90488 0 0 0
429 47.62030 -25.03569 105.60807 0 0 0
430 46.92903 -25.56150 106.10372 0 0 0
431 46.23776 -25.39515 106.80691 0 0 0
432 45.54649 -25.92096 107.30257 0 0 0
433 44.85522 -25.75462 108.00576 0 0 0
434 44.16395 -26.28042 108.50141 0 0 0
435 43.47268 -26.11408 109.20460 0 0 0
436 65.18533 -19.55966 90.61816 0 0 0
437 65.46862 -18.77683 91.17215 0 0 0
438 65.75191 -17.90563 90.77120 0 0 0
439 66.03520 -17.12280 91.32519 0 0 0
440 66.31849 -16.25160 90.92424 0 0 0
441 66.60178 -15.46876 91.47823 0 0 0
442 66.88507 -14.59757 91.07728 0 0 0
443 67.16836 -13.81473 91.63127 0 0 0
444 67.45165 -12.94354 91.23032 0 0 0
445 67.73494 -12.16070 91.78432 0 0 0
446 68.01823 -11.28951 91.38336 0 0 0
447 68.30152 -10.50667 91.93736 0 0 0
448 68.58481 -9.63548 91.53640 0 0 0
449 68.86810 -8.85264 92.09040 0 0 0
450 69.15139 -7.98145 91.68944 0 0 0
451 69.43468 -7.19861 92.24344 0 0 0
452 69.71797 -6.32741 91.84248 0 0 0
453 70.00126 -5.54458 92.39648 0 0 0
454 70.28455 -4.67338 91.99552 0 0 0
455 70.56784 -3.89055 92.54952 0 0 0
456 70.85113 -3.01935 92.14856 0 0 0
457 71.13442 -2.23651 92.70256 0 0 0
458 71.41771 -1.36532 92.30160 0 0 0
459 71.70100 -0.58248 92.85560 0 0 0
460 71.98429 0.28871 92.45464 0 0 0
461 72.26758 1.07155 93.00864 0 0 0
462 72.55087 1.94274 92.60768 0 0 0
463 72.83416 2.72558 93.16168 0 0 0
464 73.11745 3.59677 92.76072 0 0 0
465 73.40074 4.37961 93.31472 0 0 0
466 73.68403 5.25080 92.91376 0 0 0
467 65.69432 -21.11040 90.66152 0 0 0
468 66.48659 -21.69222 90.47770 0 0 0
469 67.27887 -22.14231 90.88967 0 0 0
470 68.07114 -22.72413 90.70585 0 0 0
471 68.86342 -23.17423 91.11781 0 0 0
472 69.65569 -23.75605 90.93400 0 0 0
473 70.44796 -24.20615 91.34596 0 0 0
474 71.24024 -24.78797 91.16214 0 0 0
475 72.03251 -25.23807 91.57411 0 0 0
476 72.82479 -25.81989 91.39029 0 0 0
477 73.61706 -26.26998 91.80225 0 0 0
478 74.40933 -26.85180 91.61844 0 0 0
479 75.20161 -27.30190 92.03040 0 0 0
480 75.99388 -27.88372 91.84659 0 0 0
481 76.78616 -28.33382 92.25855 0 0 0
482 77.57843 -28.91564 92.07473 0 0 0
483 78.37071 -29.36574 92.48670 0 0 0
484 79.16298 -29.94756 92.30288 0 0 0
485 79.95525 -30.39766 92.71484 0 0 0
486 80.74753 -30.97947 92.53103 0 0 0
487 81.53980 -31.42957 92.94299 0 0 0
488 82.33208 -32.01139 92.75917 0 0 0
489 83.12435 -32.46149 93.17114 0 0 0
490 83.91662 -33.04331 92.98732 0 0 0
491 84.70890 -33.49341 93.39928 0 0 0
492 85.50117 -34.07523 93.21547 0 0 0
493 86.29345 -34.52533 93.62743 0 0 0
494 87.08572 -35.10714 93.44362 0 0 0
495 87.87799 -35.55724 93.85558 0 0 0
496 88.67027 -36.13906 93.67176 0 0 0
497 89.46254 -36.58916 94.08373 0 0 0
ITEM: TIMESTEP
1000
ITEM: NUMBER OF ATOMS
497
ITEM: BOX BOUNDS pp pp pp
-1.0000000000000000e+03 1.0000000000000000e+03
-1.0000000000000000e+03 1.0000000000000000e+03
-1.0000000000000000e+03 1.0000000000000000e+03
ITEM: ATOMS id x y z ix iy iz
1 -0.76032 0.69066 4.85494 0 0 0
2 -0.27361 -0.08538 4.59357 0 0 0
3 -0.24313 -0.87231 5.17370 0 0 0
4 -0.47296 -1.50527 6.04373 0 0 0
5 -0.39063 -1.20226 7.04838 0 0 0
6 -0.76431 -1.43798 7.90202 0 0 0
7 -0.08828 -0.84262 8.27949 0 0 0
8 -0.65341 -0.36254 8.91699 0 0 0
9 -1.26028 -0.42134 9.70280 0 0 0
10 -1.32969 -0.19811 10.70928 0 0 0
11 -1.41633 0.32112 11.52806 0 0 0
12 -0.63971 0.90240 11.79331 0 0 0
13 -0.89000 1.04784 12.73981 0 0 0
14 -0.86449 1.52078 13.70474 0 0 0
15 -1.20242 1.36821 14.60074 0 0 0
16 -1.90362 1.10595 15.16556 0 0 0
17 -1.75767 0.31253 15.81997 0 0 0
18 -1.22028 -0.25238 16.47529 0 0 0
19 -0.62137 -0.24319 17.31358 0 0 0
20 -0.47716 0.13552 18.24193 0 0 0
21 -0.26938 -0.15259 19.15547 0 0 0
22 -0.39585 0.83262 19.33632 0 0 0
23 -1.05899 1.40967 19.79080 0 0 0
24 -1.18496 1.39583 20.76336 0 0 0
25 -1.15054 1.22300 21.73213 0 0 0
26 -1.17007 1.60801 22.56365 0 0 0
27 -1.65016 1.70508 23.40200 0 0 0
28 -1.32742 1.67393 24.33150 0 0 0
29 -1.73249 1.44462 25.23068 0 0 0
30 -0.80031 1.18324 25.47620 0 0 0
31 -0.62085 0.75678 26.36299 0 0 0
32 -0.54316 1.24982 27.23926 0 0 0
33 -1.45435 1.60548 27.20575 0 0 0
34 -2.29836 1.68195 27.63511 0 0 0
35 -3.29261 1.98574 27.87773 0 0 0
36 -4.09817 1.55446 28.30233 0 0 0
37 -5.09069 1.56499 28.53558 0 0 0
38 -6.01113 1.98256 28.62849 0 0 0
39 -6.93559 1.89563 28.55880 0 0 0
40 -7.89397 1.90704 28.76969 0 0 0
41 -8.36767 2.02611 29.70334 0 0 0
42 -8.92615 2.01634 30.53375 0 0 0
43 -9.49499 2.83223 30.49099 0 0 0
44 -10.24466 3.25056 30.94413 0 0 0
45 -10.97431 3.17449 30.36876 0 0 0
46 -11.80599 3.13978 29.88342 0 0 0
47 -12.59882 3.42269 29.36350 0 0 0
48 -13.25221 4.24848 29.52957 0 0 0
49 -14.17378 4.39212 29.58507 0 0 0
50 -15.13007 4.44473 29.47543 0 0 0
51 -15.74131 4.90160 30.03400 0 0 0
52 -16.04850 4.61701 30.87627 0 0 0
53 -16.89966 5.08505 30.76774 0 0 0
54 -17.86715 5.06555 30.88049 0 0 0
55 -18.88781 5.19684 31.01783 0 0 0
56 -19.39796 4.64258 31.61786 0 0 0
57 -20.34185 4.52422 31.46038 0 0 0
58 -21.16123 4.92623 31.69223 0 0 0
59 -21.91690 5.04713 32.31055 0 0 0
60 -21.66214 5.09478 33.18305 0 0 0
61 -22.28381 5.66151 33.64602 0 0 0
62 -23.10260 6.10785 33.78585 0 0 0
63 -23.17774 7.01184 34.13334 0 0 0
64 0.11802 1.95475 27.01197 0 0 0
65 0.83838 2.45089 27.42311 0 0 0
66 1.38890 3.26612 27.42039 0 0 0
67 1.69063 4.00730 26.87462 0 0 0
68 2.53761 4.36271 26.61658 0 0 0
69 3.18846 5.01556 26.82608 0 0 0
70 3.87824 5.07931 27.54470 0 0 0
71 4.52731 5.69799 27.07666 0 0 0
72 5.41374 6.07760 27.09134 0 0 0
73 5.93070 6.81384 26.58960 0 0 0
74 6.22175 7.74532 26.97036 0 0 0
75 7.19176 7.55417 27.11664 0 0 0
76 8.09965 7.75192 27.10548 0 0 0
77 8.31911 8.39650 26.46360 0 0 0
78 8.33321 9.43429 26.46780 0 0 0
79 8.45813 10.25149 26.03368 0 0 0
80 8.40998 11.22598 25.87981 0 0 0
81 8.62913 12.11177 25.38345 0 0 0
82 8.48946 13.05448 25.04329 0 0 0
83 8.80773 13.70227 24.31008 0 0 0
84 9.05058 14.54145 23.64466 0 0 0
85 9.84895 15.06194 23.65269 0 0 0
86 10.14780 16.04663 23.80817 0 0 0
87 11.12308 16.08618 23.46929 0 0 0
88 10.95622 16.50371 24.35329 0 0 0
89 11.86880 16.76596 24.51531 0 0 0
90 12.51008 16.35475 25.10258 0 0 0
91 13.45265 16.69391 25.17890 0 0 0
92 13.07500 17.14336 25.99443 0 0 0
93 13.45361 17.88980 26.49066 0 0 0
94 13.34900 18.10790 27.41870 0 0 0
95 -0.37498 0.26691 27.40758 0 0 0
96 -0.12329 -0.46311 28.05063 0 0 0
97 0.06926 -0.93741 28.99168 0 0 0
98 0.44845 -1.62817 29.64591 0 0 0
99 0.45251 -2.53050 30.18350 0 0 0
100 0.57579 -3.22092 30.83405 0 0 0
101 0.90064 -4.09520 31.17003 0 0 0
102 1.44690 -4.28165 31.96637 0 0 0
103 1.81994 -5.05620 32.47429 0 0 0
104 1.84007 -5.70953 33.19002 0 0 0
105 2.07905 -6.43033 33.79835 0 0 0
106 2.66947 -7.01781 34.34250 0 0 0
107 2.86354 -7.78329 34.88487 0 0 0
108 3.58870 -8.22515 35.32821 0 0 0
109 4.14355 -8.66983 35.99753 0 0 0
110 4.22943 -9.14023 36.86347 0 0 0
111 4.40563 -9.94105 37.49531 0 0 0
112 4.18249 -10.34483 38.40121 0 0 0
113 4.94593 -10.59658 38.99896 0 0 0
114 5.48947 -11.19430 39.65035 0 0 0
115 5.74879 -11.52208 40.58690 0 0 0
116 6.17147 -11.40548 41.53560 0 0 0
117 6.65952 -11.92045 42.11799 0 0 0
118 7.39068 -12.70405 42.32154 0 0 0
119 7.98844 -13.24678 42.95975 0 0 0
120 8.63576 -13.72726 43.52619 0 0 0
121 9.51796 -14.21104 43.73597 0 0 0
122 10.31267 -14.38891 44.40636 0 0 0
123 10.95271 -14.72830 45.06436 0 0 0
124 11.27483 -15.21562 45.86070 0 0 0
125 11.78967 -15.64158 46.62904 0 0 0
126 11.26466 -16.43411 46.88019 0 0 0
127 11.00607 -16.68856 47.91640 0 0 0
128 10.60576 -17.25897 48.62212 0 0 0
129 10.25766 -17.90254 49.39099 0 0 0
130 9.98400 -17.37155 50.09844 0 0 0
131 9.89343 -18.35186 50.48079 0 0 0
132 9.04299 -18.52601 49.96590 0 0 0
133 8.44034 -19.21597 50.02225 0 0 0
134 8.18609 -20.05336 50.38420 0 0 0
135 7.86900 -20.80480 50.88853 0 0 0
136 8.22388 -20.97605 51.75732 0 0 0
137 7.93486 -21.23017 52.58193 0 0 0
138 7.71782 -22.22339 52.97652 0 0 0
139 7.60401 -23.13493 52.59701 0 0 0
140 6.71695 -23.18971 53.00934 0 0 0
141 6.25187 -23.72788 53.57150 0 0 0
142 5.97815 -24.65403 53.76785 0 0 0
143 5.99682 -24.84464 54.71226 0 0 0
144 5.29454 -25.41341 54.90595 0 0 0
145 5.19122 -26.30925 55.31739 0 0 0
146 4.62297 -27.12350 55.57736 0 0 0
147 3.85690 -27.63313 55.14197 0 0 0
148 3.13013 -28.31662 55.26241 0 0 0
149 2.52224 -28.54447 56.12773 0 0 0
150 1.61292 -28.96548 56.01242 0 0 0
151 0.96682 -29.04694 55.27052 0 0 0
152 0.37823 -29.79149 55.14739 0 0 0
153 -0.50185 -29.98467 55.23146 0 0 0
154 -1.19254 -29.93420 55.91428 0 0 0
155 -1.31981 -29.79160 56.91821 0 0 0
156 -0.75119 -29.60628 57.70227 0 0 0
157 11.68024 -14.57787 46.83170 0 0 0
158 11.43402 -14.18861 47.70885 0 0 0
159 11.18630 -13.77604 48.53323 0 0 0
160 10.98930 -12.79195 48.82577 0 0 0
161 10.44384 -11.96355 49.12662 0 0 0
162 10.54730 -11.15904 49.68387 0 0 0
163 11.38415 -10.57445 49.57615 0 0 0
164 10.79241 -9.86483 49.94293 0 0 0
165 11.33625 -9.10718 50.20539 0 0 0
166 11.18611 -8.20757 50.59314 0 0 0
167 10.59588 -7.71750 51.21756 0 0 0
168 10.11938 -7.19905 51.88502 0 0 0
169 10.21820 -6.29578 51.55475 0 0 0
170 10.21337 -5.45165 51.94322 0 0 0
171 9.93699 -4.52313 52.23276 0 0 0
172 9.97076 -3.75347 52.81455 0 0 0
173 9.91786 -3.86321 53.75085 0 0 0
174 10.25965 -2.93880 53.87570 0 0 0
175 10.86154 -3.08368 54.60706 0 0 0
176 10.08538 -2.64937 54.95330 0 0 0
177 10.41756 -1.75489 54.97068 0 0 0
178 10.27874 -0.86533 55.30209 0 0 0
179 10.12046 -0.04641 55.82102 0 0 0
180 9.59227 0.87695 55.66710 0 0 0
181 10.38700 1.39641 55.75999 0 0 0
182 9.73145 2.01073 56.20017 0 0 0
183 9.52971 2.15050 57.16737 0 0 0
184 9.29493 2.80036 57.84718 0 0 0
185 8.54824 3.37701 57.90763 0 0 0
186 7.68295 3.82305 57.71674 0 0 0
187 6.99527 4.23380 57.15292 0 0 0
188 12.77062 -15.87287 46.91630 0 0 0
189 13.69703 -15.79562 46.81403 0 0 0
190 14.68214 -16.12636 46.69601 0 0 0
191 15.55041 -16.42236 46.48994 0 0 0
192 16.54658 -16.84459 46.24329 0 0 0
193 17.56636 -16.97652 46.02255 0 0 0
194 18.59371 -16.99553 46.06740 0 0 0
195 19.53834 -17.15983 46.39016 0 0 0
196 20.45456 -17.34239 46.59392 0 0 0
197 21.43169 -17.30571 46.38599 0 0 0
198 22.33862 -17.65663 46.18364 0 0 0
199 23.29650 -17.95812 46.07191 0 0 0
200 24.23162 -18.26039 45.85157 0 0 0
201 25.20021 -18.56593 45.64873 0 0 0
202 26.14892 -18.43755 45.60443 0 0 0
203 27.11674 -18.82597 45.50858 0 0 0
204 27.97957 -19.37245 45.78803 0 0 0
205 28.87197 -19.74254 45.51008 0 0 0
206 29.79334 -19.94881 45.80128 0 0 0
207 30.82719 -20.10020 46.01302 0 0 0
208 31.59824 -20.82144 46.00807 0 0 0
209 32.60948 -20.95675 45.87880 0 0 0
210 33.31773 -21.49759 45.63956 0 0 0
211 34.28218 -21.50806 45.78622 0 0 0
212 35.22927 -21.60487 45.69996 0 0 0
213 36.22350 -21.57023 45.40734 0 0 0
214 37.07260 -21.94487 45.03759 0 0 0
215 37.94892 -22.47937 44.82453 0 0 0
216 38.85814 -22.81083 44.90217 0 0 0
217 39.81018 -22.91429 44.69824 0 0 0
218 40.77518 -23.00374 44.82243 0 0 0
219 41.62115 -22.57627 44.44455 0 0 0
220 42.27345 -23.11387 43.95097 0 0 0
221 42.72983 -23.02347 43.10826 0 0 0
222 43.16749 -22.94660 42.20433 0 0 0
223 43.58935 -22.46300 41.41119 0 0 0
224 44.12965 -22.54799 40.53957 0 0 0
225 44.96796 -22.01076 40.36066 0 0 0
226 45.52776 -21.91032 39.56752 0 0 0
227 46.03894 -21.40886 38.94953 0 0 0
228 46.41104 -21.07739 38.12564 0 0 0
229 47.37120 -21.39081 38.17355 0 0 0
230 48.09918 -20.99350 37.55305 0 0 0
231 48.54965 -20.11958 37.40790 0 0 0
232 48.59177 -19.43674 36.72309 0 0 0
233 48.64427 -19.23582 35.78196 0 0 0
234 49.00715 -18.74074 35.07396 0 0 0
235 49.74455 -18.47288 34.43710 0 0 0
236 49.78494 -18.34386 33.50911 0 0 0
237 50.16787 -17.47609 32.89059 0 0 0
238 50.04016 -17.14907 32.01257 0 0 0
239 50.00501 -16.51175 31.28341 0 0 0
240 50.61544 -16.12412 30.64610 0 0 0
241 50.26990 -16.02970 29.68431 0 0 0
242 51.19226 -15.90299 29.19182 0 0 0
243 52.10939 -16.14533 28.71589 0 0 0
244 52.90921 -16.02701 28.14124 0 0 0
245 53.21280 -15.60459 27.28517 0 0 0
246 52.93216 -15.14992 26.51632 0 0 0
247 53.58209 -14.63141 26.92787 0 0 0
248 54.39859 -14.20985 26.79484 0 0 0
249 54.75333 -14.50348 27.62152 0 0 0
250 41.33733 -23.86945 44.90925 0 0 0
251 41.20448 -24.69399 44.21554 0 0 0
252 40.74611 -25.42899 43.79982 0 0 0
253 40.61404 -26.33885 43.24900 0 0 0
254 40.79372 -27.25825 43.56191 0 0 0
255 40.55436 -28.09250 43.98652 0 0 0
256 41.22510 -28.75051 43.63311 0 0 0
257 40.99158 -29.65722 43.87373 0 0 0
258 41.30360 -30.58610 43.75989 0 0 0
259 40.67338 -31.30095 44.09493 0 0 0
260 40.53278 -32.27220 43.97945 0 0 0
261 40.78766 -33.19154 43.67597 0 0 0
262 40.20785 -33.96363 43.49989 0 0 0
263 40.01103 -34.85793 43.71542 0 0 0
264 40.57155 -35.55295 44.14696 0 0 0
265 41.35852 -36.15010 44.43033 0 0 0
266 41.14054 -37.14550 44.58536 0 0 0
267 41.17613 -38.12540 44.63958 0 0 0
268 40.97194 -38.70324 45.42394 0 0 0
269 41.04005 -39.41522 44.73830 0 0 0
270 40.82469 -40.09079 45.46775 0 0 0
271 40.88919 -41.05149 45.86276 0 0 0
272 41.33039 -41.71141 46.43333 0 0 0
273 41.84328 -42.23427 45.74381 0 0 0
274 42.35408 -42.70179 45.07037 0 0 0
275 42.67661 -43.55545 44.77557 0 0 0
276 42.67737 -44.48396 45.13912 0 0 0
277 43.09948 -44.92766 45.97909 0 0 0
278 43.45150 -45.44830 45.20662 0 0 0
279 43.96245 -46.30778 45.18853 0 0 0
280 43.72589 -47.14656 44.70104 0 0 0
281 40.96638 -22.53097 45.68758 0 0 0
282 42.05762 -22.32213 45.61990 0 0 0
283 41.98309 -21.82825 46.51813 0 0 0
284 42.23248 -21.71996 47.44152 0 0 0
285 42.75903 -21.11485 48.02630 0 0 0
286 43.57662 -20.95498 48.55187 0 0 0
287 43.97889 -20.24663 49.19847 0 0 0
288 44.05829 -19.93793 50.23248 0 0 0
289 43.77551 -19.81142 51.14815 0 0 0
290 44.35186 -19.18344 51.68537 0 0 0
291 44.96673 -18.71245 52.30686 0 0 0
292 45.46476 -18.38393 53.08707 0 0 0
293 45.76322 -18.30331 54.06819 0 0 0
294 46.18864 -17.65107 54.79264 0 0 0
295 46.36876 -17.04526 55.57909 0 0 0
296 46.76881 -16.52521 56.23971 0 0 0
297 47.46222 -16.35163 56.93985 0 0 0
298 48.07193 -15.97090 57.83945 0 0 0
299 48.68034 -15.56335 58.56016 0 0 0
300 49.33755 -15.42072 59.27713 0 0 0
301 49.74858 -14.73006 59.92190 0 0 0
302 49.69479 -14.19311 60.80430 0 0 0
303 50.23555 -13.60461 61.31965 0 0 0