bb101nuc1bl50bn4d30tot200V2

201 atoms
200 bonds
202 angles

1 atom types
1 bond types
1 angle types

-1000 1000 xlo xhi
-1000 1000 ylo yhi
-1000 1000 zlo zhi

Masses

1 1

Atoms

1	1	1	0.0	0.0	0.0	0	0	0
2	1	1	0.0	0.0	1.0	0	0	0
3	1	1	0.0	-0.49999999999999994	1.8660254037844388	0	0	0
4	1	1	0.0	0.0	2.7320508075688776	0	0	0
5	1	1	0.0	-0.49999999999999994	3.5980762113533165	0	0	0
6	1	1	0.0	0.0	4.464101615137755	0	0	0
7	1	1	0.0	-0.49999999999999994	5.330127018922194	0	0	0
8	1	1	0.0	0.0	6.196152422706632	0	0	0
9	1	1	0.0	-0.49999999999999994	7.06217782649107	0	0	0
10	1	1	0.0	0.0	7.928203230275509	0	0	0
11	1	1	0.0	-0.49999999999999994	8.794228634059948	0	0	0
12	1	1	0.0	0.0	9.660254037844387	0	0	0
13	1	1	0.0	-0.49999999999999994	10.526279441628827	0	0	0
14	1	1	0.0	0.0	11.392304845413266	0	0	0
15	1	1	0.0	-0.49999999999999994	12.258330249197705	0	0	0
16	1	1	0.0	0.0	13.124355652982144	0	0	0
17	1	1	0.0	-0.49999999999999994	13.990381056766584	0	0	0
18	1	1	0.0	0.0	14.856406460551023	0	0	0
19	1	1	0.0	-0.49999999999999994	15.722431864335462	0	0	0
20	1	1	0.0	0.0	16.5884572681199	0	0	0
21	1	1	0.0	-0.49999999999999994	17.454482671904337	0	0	0
22	1	1	0.0	0.0	18.320508075688775	0	0	0
23	1	1	0.0	-0.49999999999999994	19.186533479473212	0	0	0
24	1	1	0.0	0.0	20.05255888325765	0	0	0
25	1	1	0.0	-0.49999999999999994	20.918584287042087	0	0	0
26	1	1	0.0	0.0	21.784609690826525	0	0	0
27	1	1	0.0	-0.49999999999999994	22.650635094610962	0	0	0
28	1	1	0.0	0.0	23.5166604983954	0	0	0
29	1	1	0.0	-0.49999999999999994	24.382685902179837	0	0	0
30	1	1	0.0	0.0	25.248711305964274	0	0	0
31	1	1	0.0	-0.49999999999999994	26.114736709748712	0	0	0
32	1	1	0.0	0.0	26.98076211353315	0	0	0
33	1	1	0.0	-0.49999999999999994	27.846787517317587	0	0	0
34	1	1	0.0	0.0	28.712812921102024	0	0	0
35	1	1	0.0	-0.49999999999999994	29.578838324886462	0	0	0
36	1	1	0.0	0.0	30.4448637286709	0	0	0
37	1	1	0.0	-0.49999999999999994	31.310889132455337	0	0	0
38	1	1	0.0	0.0	32.17691453623978	0	0	0
39	1	1	0.0	-0.49999999999999994	33.04293994002422	0	0	0
40	1	1	0.0	0.0	33.90896534380866	0	0	0
41	1	1	0.0	-0.49999999999999994	34.7749907475931	0	0	0
42	1	1	0.0	0.0	35.64101615137754	0	0	0
43	1	1	0.0	-0.49999999999999994	36.50704155516198	0	0	0
44	1	1	0.0	0.0	37.373066958946424	0	0	0
45	1	1	0.0	-0.49999999999999994	38.239092362730865	0	0	0
46	1	1	0.0	0.0	39.105117766515306	0	0	0
47	1	1	0.0	-0.49999999999999994	39.97114317029975	0	0	0
48	1	1	0.0	0.0	40.83716857408419	0	0	0
49	1	1	0.0	-0.49999999999999994	41.70319397786863	0	0	0
50	1	1	0.0	0.0	42.56921938165307	0	0	0
51	1	1	0.0	-0.49999999999999994	43.43524478543751	0	0	0
52	1	1	0.5505986097874096	-1.3295199202972006	43.34176819622769	0	0	0
53	1	1	1.101197219574818	-2.001166949614907	42.846055135164264	0	0	0
54	1	1	1.6517958293622266	-2.766290568142435	43.17986199439804	0	0	0
55	1	1	2.202394439149635	-3.4379375974601416	42.68414893333461	0	0	0
56	1	1	2.7529930489370433	-4.2030612159876695	43.01795579256839	0	0	0
57	1	1	3.303591658724452	-4.874708245305376	42.52224273150496	0	0	0
58	1	1	3.8541902685118603	-5.639831863832904	42.856049590738735	0	0	0
59	1	1	4.404788878299269	-6.3114788931506105	42.36033652967531	0	0	0
60	1	1	4.955387488086677	-7.076602511678138	42.69414338890908	0	0	0
61	1	1	5.505986097874086	-7.748249540995845	42.19843032784566	0	0	0
62	1	1	6.056584707661495	-8.513373159523372	42.53223718707943	0	0	0
63	1	1	6.607183317448904	-9.18502018884108	42.036524126016005	0	0	0
64	1	1	7.157781927236313	-9.950143807368608	42.37033098524978	0	0	0
65	1	1	7.7083805370237215	-10.621790836686316	41.87461792418635	0	0	0
66	1	1	8.25897914681113	-11.386914455213844	42.20842478342013	0	0	0
67	1	1	8.80957775659854	-12.058561484531552	41.7127117223567	0	0	0
68	1	1	9.360176366385948	-12.82368510305908	42.046518581590476	0	0	0
69	1	1	9.910774976173357	-13.495332132376788	41.55080552052705	0	0	0
70	1	1	10.461373585960766	-14.260455750904317	41.884612379760824	0	0	0
71	1	1	11.011972195748175	-14.932102780222024	41.3888993186974	0	0	0
72	1	1	11.562570805535584	-15.697226398749553	41.72270617793117	0	0	0
73	1	1	12.113169415322993	-16.36887342806726	41.226993116867746	0	0	0
74	1	1	12.663768025110402	-17.13399704659479	41.56079997610152	0	0	0
75	1	1	13.21436663489781	-17.805644075912497	41.065086915038094	0	0	0
76	1	1	13.76496524468522	-18.570767694440026	41.39889377427187	0	0	0
77	1	1	14.315563854472629	-19.242414723757733	40.90318071320844	0	0	0
78	1	1	14.866162464260038	-20.00753834228526	41.23698757244222	0	0	0
79	1	1	15.416761074047447	-20.67918537160297	40.74127451137879	0	0	0
80	1	1	15.967359683834855	-21.444308990130498	41.075081370612565	0	0	0
81	1	1	16.517958293622264	-22.115956019448205	40.57936830954914	0	0	0
82	1	1	17.06855690340967	-22.881079637975734	40.913175168782914	0	0	0
83	1	1	17.61915551319708	-23.55272666729344	40.41746210771949	0	0	0
84	1	1	18.169754122984486	-24.31785028582097	40.75126896695326	0	0	0
85	1	1	18.720352732771893	-24.989497315138678	40.255555905889835	0	0	0
86	1	1	19.2709513425593	-25.754620933666207	40.58936276512361	0	0	0
87	1	1	19.821549952346707	-26.426267962983914	40.093649704060184	0	0	0
88	1	1	20.372148562134115	-27.191391581511443	40.42745656329396	0	0	0
89	1	1	20.92274717192152	-27.86303861082915	39.93174350223053	0	0	0
90	1	1	21.47334578170893	-28.62816222935668	40.26555036146431	0	0	0
91	1	1	22.023944391496336	-29.299809258674387	39.76983730040088	0	0	0
92	1	1	22.574543001283743	-30.064932877201915	40.103644159634655	0	0	0
93	1	1	23.12514161107115	-30.736579906519623	39.60793109857123	0	0	0
94	1	1	23.675740220858557	-31.50170352504715	39.941737957805	0	0	0
95	1	1	24.226338830645965	-32.17335055436486	39.44602489674158	0	0	0
96	1	1	24.77693744043337	-32.938474172892384	39.77983175597535	0	0	0
97	1	1	25.32753605022078	-33.61012120221009	39.284118694911925	0	0	0
98	1	1	25.878134660008186	-34.37524482073761	39.6179255541457	0	0	0
99	1	1	26.428733269795593	-35.04689185005532	39.12221249308227	0	0	0
100	1	1	26.979331879583	-35.81201546858284	39.45601935231605	0	0	0
101	1	1	27.529930489370408	-36.483662497900546	38.96030629125262	0	0	0
102	1	1	-0.9379157955740199	-0.7485441416172817	43.67719471844119	0	0	0
103	1	1	-1.8758315911480383	-1.0847646487214846	43.76245743605768	0	0	0
104	1	1	-2.8137473867220564	-1.1790352228220071	44.09626429529145	0	0	0
105	1	1	-3.751663182296075	-1.51525572992621	44.181527012907935	0	0	0
106	1	1	-4.689578977870093	-1.6095263040267325	44.5153338721417	0	0	0
107	1	1	-5.627494773444112	-1.9457468111309355	44.60059658975819	0	0	0
108	1	1	-6.56541056901813	-2.040017385231458	44.93440344899196	0	0	0
109	1	1	-7.503326364592149	-2.376237892335661	45.019666166608445	0	0	0
110	1	1	-8.441242160166167	-2.4705084664361836	45.35347302584221	0	0	0
111	1	1	-9.379157955740185	-2.8067289735403866	45.4387357434587	0	0	0
112	1	1	-10.317073751314203	-2.900999547640909	45.77254260269247	0	0	0
113	1	1	-11.25498954688822	-3.237220054745112	45.857805320308955	0	0	0
114	1	1	-12.192905342462238	-3.3314906288456347	46.19161217954272	0	0	0
115	1	1	-13.130821138036255	-3.6677111359498378	46.27687489715921	0	0	0
116	1	1	-14.068736933610273	-3.7619817100503603	46.61068175639298	0	0	0
117	1	1	-15.00665272918429	-4.098202217154563	46.695944474009465	0	0	0
118	1	1	-15.944568524758308	-4.192472791255086	47.02975133324323	0	0	0
119	1	1	-16.882484320332328	-4.528693298359289	47.11501405085972	0	0	0
120	1	1	-17.820400115906345	-4.622963872459811	47.44882091009349	0	0	0
121	1	1	-18.758315911480363	-4.9591843795640145	47.534083627709975	0	0	0
122	1	1	-19.69623170705438	-5.053454953664537	47.86789048694374	0	0	0
123	1	1	-20.634147502628398	-5.38967546076874	47.95315320456023	0	0	0
124	1	1	-21.572063298202416	-5.483946034869263	48.286960063794	0	0	0
125	1	1	-22.509979093776433	-5.820166541973466	48.372222781410485	0	0	0
126	1	1	-23.44789488935045	-5.914437116073988	48.70602964064425	0	0	0
127	1	1	-24.38581068492447	-6.250657623178191	48.79129235826074	0	0	0
128	1	1	-25.323726480498486	-6.344928197278714	49.12509921749451	0	0	0
129	1	1	-26.261642276072504	-6.681148704382917	49.210361935110996	0	0	0
130	1	1	-27.19955807164652	-6.775419278483439	49.54416879434476	0	0	0
131	1	1	-28.13747386722054	-7.111639785587642	49.62943151196125	0	0	0
132	1	1	-29.075389662794557	-7.205910359688165	49.96323837119502	0	0	0
133	1	1	-30.013305458368574	-7.542130866792368	50.048501088811506	0	0	0
134	1	1	-30.95122125394259	-7.63640144089289	50.38230794804527	0	0	0
135	1	1	-31.88913704951661	-7.9726219479970935	50.46757066566176	0	0	0
136	1	1	-32.82705284509063	-8.066892522097616	50.80137752489553	0	0	0
137	1	1	-33.76496864066465	-8.403113029201819	50.886640242512016	0	0	0
138	1	1	-34.70288443623867	-8.49738360330234	51.22044710174578	0	0	0
139	1	1	-35.64080023181269	-8.833604110406544	51.30570981936227	0	0	0
140	1	1	-36.57871602738671	-8.927874684507065	51.63951667859604	0	0	0
141	1	1	-37.51663182296073	-9.264095191611268	51.724779396212526	0	0	0
142	1	1	-38.454547618534754	-9.35836576571179	52.05858625544629	0	0	0
143	1	1	-39.392463414108775	-9.694586272815993	52.14384897306278	0	0	0
144	1	1	-40.330379209682796	-9.788856846916515	52.47765583229655	0	0	0
145	1	1	-41.26829500525682	-10.125077354020718	52.562918549913036	0	0	0
146	1	1	-42.20621080083084	-10.21934792812124	52.8967254091468	0	0	0
147	1	1	-43.14412659640486	-10.555568435225442	52.98198812676329	0	0	0
148	1	1	-44.08204239197888	-10.649839009325964	53.31579498599706	0	0	0
149	1	1	-45.0199581875529	-10.986059516430167	53.401057703613546	0	0	0
150	1	1	-45.95787398312692	-11.080330090530689	53.734864562847314	0	0	0
151	1	1	-46.895789778700944	-11.416550597634892	53.8201272804638	0	0	0
152	1	1	0.38731718578661717	0.0773537730638269	44.15402710180548	0	0	0
153	1	1	0.7746343715732337	0.21796564932391244	45.06518773410308	0	0	0
154	1	1	1.1619515573598502	1.0773598419519648	45.398994593336845	0	0	0
155	1	1	1.5492687431464667	1.2179717182120502	46.31015522563444	0	0	0
156	1	1	1.9365859289330831	2.0773659108401024	46.64396208486821	0	0	0
157	1	1	2.3239031147196996	2.217977787100188	47.5551227171658	0	0	0
158	1	1	2.7112203005063162	3.07737197972824	47.88892957639957	0	0	0
159	1	1	3.098537486292933	3.217983855988326	48.80009020869716	0	0	0
160	1	1	3.4858546720795496	4.077378048616378	49.13389706793093	0	0	0
161	1	1	3.8731718578661662	4.217989924876464	50.045057700228526	0	0	0
162	1	1	4.2604890436527825	5.077384117504516	50.37886455946229	0	0	0
163	1	1	4.647806229439399	5.217995993764601	51.29002519175989	0	0	0
164	1	1	5.035123415226016	6.077390186392654	51.623832050993656	0	0	0
165	1	1	5.4224406010126325	6.218002062652739	52.53499268329125	0	0	0
166	1	1	5.809757786799249	7.077396255280791	52.86879954252502	0	0	0
167	1	1	6.197074972585866	7.218008131540877	53.77996017482261	0	0	0
168	1	1	6.5843921583724825	8.07740232416893	54.11376703405638	0	0	0
169	1	1	6.971709344159099	8.218014200429014	55.024927666353975	0	0	0
170	1	1	7.359026529945716	9.077408393057066	55.35873452558774	0	0	0
171	1	1	7.7463437157323325	9.218020269317151	56.26989515788534	0	0	0
172	1	1	8.13366090151895	10.077414461945203	56.603702017119105	0	0	0
173	1	1	8.520978087305565	10.218026338205288	57.5148626494167	0	0	0
174	1	1	8.90829527309218	11.07742053083334	57.84866950865047	0	0	0
175	1	1	9.295612458878797	11.218032407093425	58.75983014094806	0	0	0
176	1	1	9.682929644665412	12.077426599721477	59.09363700018183	0	0	0
177	1	1	10.070246830452028	12.218038475981562	60.00479763247942	0	0	0
178	1	1	10.457564016238644	13.077432668609614	60.33860449171319	0	0	0
179	1	1	10.84488120202526	13.218044544869699	61.249765124010786	0	0	0
180	1	1	11.232198387811875	14.07743873749775	61.58357198324455	0	0	0
181	1	1	11.619515573598491	14.218050613757836	62.49473261554215	0	0	0
182	1	1	12.006832759385107	15.077444806385888	62.828539474775916	0	0	0
183	1	1	12.394149945171723	15.218056682645972	63.73970010707351	0	0	0
184	1	1	12.781467130958339	16.077450875274025	64.07350696630728	0	0	0
185	1	1	13.168784316744954	16.21806275153411	64.98466759860487	0	0	0
186	1	1	13.55610150253157	17.07745694416216	65.31847445783865	0	0	0
187	1	1	13.943418688318186	17.218068820422246	66.22963509013624	0	0	0
188	1	1	14.330735874104802	18.0774630130503	66.56344194937002	0	0	0
189	1	1	14.718053059891417	18.218074889310383	67.47460258166761	0	0	0
190	1	1	15.105370245678033	19.077469081938435	67.80840944090139	0	0	0
191	1	1	15.492687431464649	19.21808095819852	68.71957007319898	0	0	0
192	1	1	15.880004617251265	20.077475150826572	69.05337693243276	0	0	0
193	1	1	16.26732180303788	20.218087027086657	69.96453756473035	0	0	0
194	1	1	16.654638988824498	21.07748121971471	70.29834442396412	0	0	0
195	1	1	17.041956174611116	21.218093095974794	71.20950505626172	0	0	0
196	1	1	17.429273360397733	22.077487288602846	71.5433119154955	0	0	0
197	1	1	17.81659054618435	22.21809916486293	72.45447254779309	0	0	0
198	1	1	18.20390773197097	23.077493357490983	72.78827940702686	0	0	0
199	1	1	18.591224917757586	23.218105233751068	73.69944003932446	0	0	0
200	1	1	18.978542103544203	24.07749942637912	74.03324689855823	0	0	0
201	1	1	19.36585928933082	24.218111302639205	74.94440753085583	0	0	0

Bonds

1	1	1	2
2	1	2	3
3	1	3	4
4	1	4	5
5	1	5	6
6	1	6	7
7	1	7	8
8	1	8	9
9	1	9	10
10	1	10	11
11	1	11	12
12	1	12	13
13	1	13	14
14	1	14	15
15	1	15	16
16	1	16	17
17	1	17	18
18	1	18	19
19	1	19	20
20	1	20	21
21	1	21	22
22	1	22	23
23	1	23	24
24	1	24	25
25	1	25	26
26	1	26	27
27	1	27	28
28	1	28	29
29	1	29	30
30	1	30	31
31	1	31	32
32	1	32	33
33	1	33	34
34	1	34	35
35	1	35	36
36	1	36	37
37	1	37	38
38	1	38	39
39	1	39	40
40	1	40	41
41	1	41	42
42	1	42	43
43	1	43	44
44	1	44	45
45	1	45	46
46	1	46	47
47	1	47	48
48	1	48	49
49	1	49	50
50	1	50	51
51	1	51	52
52	1	51	102
53	1	51	152
54	1	52	53
55	1	53	54
56	1	54	55
57	1	55	56
58	1	56	57
59	1	57	58
60	1	58	59
61	1	59	60
62	1	60	61
63	1	61	62
64	1	62	63
65	1	63	64
66	1	64	65
67	1	65	66
68	1	66	67
69	1	67	68
70	1	68	69
71	1	69	70
72	1	70	71
73	1	71	72
74	1	72	73
75	1	73	74
76	1	74	75
77	1	75	76
78	1	76	77
79	1	77	78
80	1	78	79
81	1	79	80
82	1	80	81
83	1	81	82
84	1	82	83
85	1	83	84
86	1	84	85
87	1	85	86
88	1	86	87
89	1	87	88
90	1	88	89
91	1	89	90
92	1	90	91
93	1	91	92
94	1	92	93
95	1	93	94
96	1	94	95
97	1	95	96
98	1	96	97
99	1	97	98
100	1	98	99
101	1	99	100
102	1	100	101
103	1	102	103
104	1	103	104
105	1	104	105
106	1	105	106
107	1	106	107
108	1	107	108
109	1	108	109
110	1	109	110
111	1	110	111
112	1	111	112
113	1	112	113
114	1	113	114
115	1	114	115
116	1	115	116
117	1	116	117
118	1	117	118
119	1	118	119
120	1	119	120
121	1	120	121
122	1	121	122
123	1	122	123
124	1	123	124
125	1	124	125
126	1	125	126
127	1	126	127
128	1	127	128
129	1	128	129
130	1	129	130
131	1	130	131
132	1	131	132
133	1	132	133
134	1	133	134
135	1	134	135
136	1	135	136
137	1	136	137
138	1	137	138
139	1	138	139
140	1	139	140
141	1	140	141
142	1	141	142
143	1	142	143
144	1	143	144
145	1	144	145
146	1	145	146
147	1	146	147
148	1	147	148
149	1	148	149
150	1	149	150
151	1	150	151
152	1	152	153
153	1	153	154
154	1	154	155
155	1	155	156
156	1	156	157
157	1	157	158
158	1	158	159
159	1	159	160
160	1	160	161
161	1	161	162
162	1	162	163
163	1	163	164
164	1	164	165
165	1	165	166
166	1	166	167
167	1	167	168
168	1	168	169
169	1	169	170
170	1	170	171
171	1	171	172
172	1	172	173
173	1	173	174
174	1	174	175
175	1	175	176
176	1	176	177
177	1	177	178
178	1	178	179
179	1	179	180
180	1	180	181
181	1	181	182
182	1	182	183
183	1	183	184
184	1	184	185
185	1	185	186
186	1	186	187
187	1	187	188
188	1	188	189
189	1	189	190
190	1	190	191
191	1	191	192
192	1	192	193
193	1	193	194
194	1	194	195
195	1	195	196
196	1	196	197
197	1	197	198
198	1	198	199
199	1	199	200
200	1	200	201

Angles

1	1	1	2	3
2	1	2	3	4
3	1	3	4	5
4	1	4	5	6
5	1	5	6	7
6	1	6	7	8
7	1	7	8	9
8	1	8	9	10
9	1	9	10	11
10	1	10	11	12
11	1	11	12	13
12	1	12	13	14
13	1	13	14	15
14	1	14	15	16
15	1	15	16	17
16	1	16	17	18
17	1	17	18	19
18	1	18	19	20
19	1	19	20	21
20	1	20	21	22
21	1	21	22	23
22	1	22	23	24
23	1	23	24	25
24	1	24	25	26
25	1	25	26	27
26	1	26	27	28
27	1	27	28	29
28	1	28	29	30
29	1	29	30	31
30	1	30	31	32
31	1	31	32	33
32	1	32	33	34
33	1	33	34	35
34	1	34	35	36
35	1	35	36	37
36	1	36	37	38
37	1	37	38	39
38	1	38	39	40
39	1	39	40	41
40	1	40	41	42
41	1	41	42	43
42	1	42	43	44
43	1	43	44	45
44	1	44	45	46
45	1	45	46	47
46	1	46	47	48
47	1	47	48	49
48	1	48	49	50
49	1	49	50	51
50	1	50	51	52
51	1	50	51	102
52	1	50	51	152
53	1	51	52	53
54	1	51	102	103
55	1	51	152	153
56	1	52	51	102
57	1	52	51	152
58	1	52	53	54
59	1	53	54	55
60	1	54	55	56
61	1	55	56	57
62	1	56	57	58
63	1	57	58	59
64	1	58	59	60
65	1	59	60	61
66	1	60	61	62
67	1	61	62	63
68	1	62	63	64
69	1	63	64	65
70	1	64	65	66
71	1	65	66	67
72	1	66	67	68
73	1	67	68	69
74	1	68	69	70
75	1	69	70	71
76	1	70	71	72
77	1	71	72	73
78	1	72	73	74
79	1	73	74	75
80	1	74	75	76
81	1	75	76	77
82	1	76	77	78
83	1	77	78	79
84	1	78	79	80
85	1	79	80	81
86	1	80	81	82
87	1	81	82	83
88	1	82	83	84
89	1	83	84	85
90	1	84	85	86
91	1	85	86	87
92	1	86	87	88
93	1	87	88	89
94	1	88	89	90
95	1	89	90	91
96	1	90	91	92
97	1	91	92	93
98	1	92	93	94
99	1	93	94	95
100	1	94	95	96
101	1	95	96	97
102	1	96	97	98
103	1	97	98	99
104	1	98	99	100
105	1	99	100	101
106	1	102	51	152
107	1	102	103	104
108	1	103	104	105
109	1	104	105	106
110	1	105	106	107
111	1	106	107	108
112	1	107	108	109
113	1	108	109	110
114	1	109	110	111
115	1	110	111	112
116	1	111	112	113
117	1	112	113	114
118	1	113	114	115
119	1	114	115	116
120	1	115	116	117
121	1	116	117	118
122	1	117	118	119
123	1	118	119	120
124	1	119	120	121
125	1	120	121	122
126	1	121	122	123
127	1	122	123	124
128	1	123	124	125
129	1	124	125	126
130	1	125	126	127
131	1	126	127	128
132	1	127	128	129
133	1	128	129	130
134	1	129	130	131
135	1	130	131	132
136	1	131	132	133
137	1	132	133	134
138	1	133	134	135
139	1	134	135	136
140	1	135	136	137
141	1	136	137	138
142	1	137	138	139
143	1	138	139	140
144	1	139	140	141
145	1	140	141	142
146	1	141	142	143
147	1	142	143	144
148	1	143	144	145
149	1	144	145	146
150	1	145	146	147
151	1	146	147	148
152	1	147	148	149
153	1	148	149	150
154	1	149	150	151
155	1	152	153	154
156	1	153	154	155
157	1	154	155	156
158	1	155	156	157
159	1	156	157	158
160	1	157	158	159
161	1	158	159	160
162	1	159	160	161
163	1	160	161	162
164	1	161	162	163
165	1	162	163	164
166	1	163	164	165
167	1	164	165	166
168	1	165	166	167
169	1	166	167	168
170	1	167	168	169
171	1	168	169	170
172	1	169	170	171
173	1	170	171	172
174	1	171	172	173
175	1	172	173	174
176	1	173	174	175
177	1	174	175	176
178	1	175	176	177
179	1	176	177	178
180	1	177	178	179
181	1	178	179	180
182	1	179	180	181
183	1	180	181	182
184	1	181	182	183
185	1	182	183	184
186	1	183	184	185
187	1	184	185	186
188	1	185	186	187
189	1	186	187	188
190	1	187	188	189
191	1	188	189	190
192	1	189	190	191
193	1	190	191	192
194	1	191	192	193
195	1	192	193	194
196	1	193	194	195
197	1	194	195	196
198	1	195	196	197
199	1	196	197	198
200	1	197	198	199
201	1	198	199	200
202	1	199	200	201
