bb301nuc1bl150bn4d30tot600V2

601 atoms
600 bonds
602 angles

1 atom types
1 bond types
1 angle types

-1000 1000 xlo xhi
-1000 1000 ylo yhi
-1000 1000 zlo zhi

Masses

1 1

Atoms

1	1	1	0.0	0.0	0.0	0	0	0
2	1	1	0.0	0.0	1.0	0	0	0
3	1	1	0.0	-0.49999999999999994	1.8660254037844388	0	0	0
4	1	1	0.0	0.0	2.7320508075688776	0	0	0
5	1	1	0.0	-0.49999999999999994	3.5980762113533165	0	0	0
6	1	1	0.0	0.0	4.464101615137755	0	0	0
7	1	1	0.0	-0.49999999999999994	5.330127018922194	0	0	0
8	1	1	0.0	0.0	6.196152422706632	0	0	0
9	1	1	0.0	-0.49999999999999994	7.06217782649107	0	0	0
10	1	1	0.0	0.0	7.928203230275509	0	0	0
11	1	1	0.0	-0.49999999999999994	8.794228634059948	0	0	0
12	1	1	0.0	0.0	9.660254037844387	0	0	0
13	1	1	0.0	-0.49999999999999994	10.526279441628827	0	0	0
14	1	1	0.0	0.0	11.392304845413266	0	0	0
15	1	1	0.0	-0.49999999999999994	12.258330249197705	0	0	0
16	1	1	0.0	0.0	13.124355652982144	0	0	0
17	1	1	0.0	-0.49999999999999994	13.990381056766584	0	0	0
18	1	1	0.0	0.0	14.856406460551023	0	0	0
19	1	1	0.0	-0.49999999999999994	15.722431864335462	0	0	0
20	1	1	0.0	0.0	16.5884572681199	0	0	0
21	1	1	0.0	-0.49999999999999994	17.454482671904337	0	0	0
22	1	1	0.0	0.0	18.320508075688775	0	0	0
23	1	1	0.0	-0.49999999999999994	19.186533479473212	0	0	0
24	1	1	0.0	0.0	20.05255888325765	0	0	0
25	1	1	0.0	-0.49999999999999994	20.918584287042087	0	0	0
26	1	1	0.0	0.0	21.784609690826525	0	0	0
27	1	1	0.0	-0.49999999999999994	22.650635094610962	0	0	0
28	1	1	0.0	0.0	23.5166604983954	0	0	0
29	1	1	0.0	-0.49999999999999994	24.382685902179837	0	0	0
30	1	1	0.0	0.0	25.248711305964274	0	0	0
31	1	1	0.0	-0.49999999999999994	26.114736709748712	0	0	0
32	1	1	0.0	0.0	26.98076211353315	0	0	0
33	1	1	0.0	-0.49999999999999994	27.846787517317587	0	0	0
34	1	1	0.0	0.0	28.712812921102024	0	0	0
35	1	1	0.0	-0.49999999999999994	29.578838324886462	0	0	0
36	1	1	0.0	0.0	30.4448637286709	0	0	0
37	1	1	0.0	-0.49999999999999994	31.310889132455337	0	0	0
38	1	1	0.0	0.0	32.17691453623978	0	0	0
39	1	1	0.0	-0.49999999999999994	33.04293994002422	0	0	0
40	1	1	0.0	0.0	33.90896534380866	0	0	0
41	1	1	0.0	-0.49999999999999994	34.7749907475931	0	0	0
42	1	1	0.0	0.0	35.64101615137754	0	0	0
43	1	1	0.0	-0.49999999999999994	36.50704155516198	0	0	0
44	1	1	0.0	0.0	37.373066958946424	0	0	0
45	1	1	0.0	-0.49999999999999994	38.239092362730865	0	0	0
46	1	1	0.0	0.0	39.105117766515306	0	0	0
47	1	1	0.0	-0.49999999999999994	39.97114317029975	0	0	0
48	1	1	0.0	0.0	40.83716857408419	0	0	0
49	1	1	0.0	-0.49999999999999994	41.70319397786863	0	0	0
50	1	1	0.0	0.0	42.56921938165307	0	0	0
51	1	1	0.0	-0.49999999999999994	43.43524478543751	0	0	0
52	1	1	0.0	0.0	44.30127018922195	0	0	0
53	1	1	0.0	-0.49999999999999994	45.16729559300639	0	0	0
54	1	1	0.0	0.0	46.033320996790835	0	0	0
55	1	1	0.0	-0.49999999999999994	46.899346400575276	0	0	0
56	1	1	0.0	0.0	47.76537180435972	0	0	0
57	1	1	0.0	-0.49999999999999994	48.63139720814416	0	0	0
58	1	1	0.0	0.0	49.4974226119286	0	0	0
59	1	1	0.0	-0.49999999999999994	50.36344801571304	0	0	0
60	1	1	0.0	0.0	51.22947341949748	0	0	0
61	1	1	0.0	-0.49999999999999994	52.09549882328192	0	0	0
62	1	1	0.0	0.0	52.96152422706636	0	0	0
63	1	1	0.0	-0.49999999999999994	53.827549630850804	0	0	0
64	1	1	0.0	0.0	54.693575034635245	0	0	0
65	1	1	0.0	-0.49999999999999994	55.559600438419686	0	0	0
66	1	1	0.0	0.0	56.42562584220413	0	0	0
67	1	1	0.0	-0.49999999999999994	57.29165124598857	0	0	0
68	1	1	0.0	0.0	58.15767664977301	0	0	0
69	1	1	0.0	-0.49999999999999994	59.02370205355745	0	0	0
70	1	1	0.0	0.0	59.88972745734189	0	0	0
71	1	1	0.0	-0.49999999999999994	60.75575286112633	0	0	0
72	1	1	0.0	0.0	61.62177826491077	0	0	0
73	1	1	0.0	-0.49999999999999994	62.487803668695214	0	0	0
74	1	1	0.0	0.0	63.353829072479655	0	0	0
75	1	1	0.0	-0.49999999999999994	64.21985447626409	0	0	0
76	1	1	0.0	0.0	65.08587988004852	0	0	0
77	1	1	0.0	-0.49999999999999994	65.95190528383296	0	0	0
78	1	1	0.0	0.0	66.81793068761739	0	0	0
79	1	1	0.0	-0.49999999999999994	67.68395609140183	0	0	0
80	1	1	0.0	0.0	68.54998149518626	0	0	0
81	1	1	0.0	-0.49999999999999994	69.41600689897069	0	0	0
82	1	1	0.0	0.0	70.28203230275513	0	0	0
83	1	1	0.0	-0.49999999999999994	71.14805770653956	0	0	0
84	1	1	0.0	0.0	72.014083110324	0	0	0
85	1	1	0.0	-0.49999999999999994	72.88010851410843	0	0	0
86	1	1	0.0	0.0	73.74613391789286	0	0	0
87	1	1	0.0	-0.49999999999999994	74.6121593216773	0	0	0
88	1	1	0.0	0.0	75.47818472546173	0	0	0
89	1	1	0.0	-0.49999999999999994	76.34421012924616	0	0	0
90	1	1	0.0	0.0	77.2102355330306	0	0	0
91	1	1	0.0	-0.49999999999999994	78.07626093681503	0	0	0
92	1	1	0.0	0.0	78.94228634059947	0	0	0
93	1	1	0.0	-0.49999999999999994	79.8083117443839	0	0	0
94	1	1	0.0	0.0	80.67433714816833	0	0	0
95	1	1	0.0	-0.49999999999999994	81.54036255195277	0	0	0
96	1	1	0.0	0.0	82.4063879557372	0	0	0
97	1	1	0.0	-0.49999999999999994	83.27241335952164	0	0	0
98	1	1	0.0	0.0	84.13843876330607	0	0	0
99	1	1	0.0	-0.49999999999999994	85.0044641670905	0	0	0
100	1	1	0.0	0.0	85.87048957087494	0	0	0
101	1	1	0.0	-0.49999999999999994	86.73651497465937	0	0	0
102	1	1	0.0	0.0	87.6025403784438	0	0	0
103	1	1	0.0	-0.49999999999999994	88.46856578222824	0	0	0
104	1	1	0.0	0.0	89.33459118601267	0	0	0
105	1	1	0.0	-0.49999999999999994	90.20061658979711	0	0	0
106	1	1	0.0	0.0	91.06664199358154	0	0	0
107	1	1	0.0	-0.49999999999999994	91.93266739736598	0	0	0
108	1	1	0.0	0.0	92.79869280115041	0	0	0
109	1	1	0.0	-0.49999999999999994	93.66471820493484	0	0	0
110	1	1	0.0	0.0	94.53074360871928	0	0	0
111	1	1	0.0	-0.49999999999999994	95.39676901250371	0	0	0
112	1	1	0.0	0.0	96.26279441628814	0	0	0
113	1	1	0.0	-0.49999999999999994	97.12881982007258	0	0	0
114	1	1	0.0	0.0	97.99484522385701	0	0	0
115	1	1	0.0	-0.49999999999999994	98.86087062764145	0	0	0
116	1	1	0.0	0.0	99.72689603142588	0	0	0
117	1	1	0.0	-0.49999999999999994	100.59292143521031	0	0	0
118	1	1	0.0	0.0	101.45894683899475	0	0	0
119	1	1	0.0	-0.49999999999999994	102.32497224277918	0	0	0
120	1	1	0.0	0.0	103.19099764656362	0	0	0
121	1	1	0.0	-0.49999999999999994	104.05702305034805	0	0	0
122	1	1	0.0	0.0	104.92304845413248	0	0	0
123	1	1	0.0	-0.49999999999999994	105.78907385791692	0	0	0
124	1	1	0.0	0.0	106.65509926170135	0	0	0
125	1	1	0.0	-0.49999999999999994	107.52112466548579	0	0	0
126	1	1	0.0	0.0	108.38715006927022	0	0	0
127	1	1	0.0	-0.49999999999999994	109.25317547305465	0	0	0
128	1	1	0.0	0.0	110.11920087683909	0	0	0
129	1	1	0.0	-0.49999999999999994	110.98522628062352	0	0	0
130	1	1	0.0	0.0	111.85125168440796	0	0	0
131	1	1	0.0	-0.49999999999999994	112.71727708819239	0	0	0
132	1	1	0.0	0.0	113.58330249197682	0	0	0
133	1	1	0.0	-0.49999999999999994	114.44932789576126	0	0	0
134	1	1	0.0	0.0	115.31535329954569	0	0	0
135	1	1	0.0	-0.49999999999999994	116.18137870333013	0	0	0
136	1	1	0.0	0.0	117.04740410711456	0	0	0
137	1	1	0.0	-0.49999999999999994	117.913429510899	0	0	0
138	1	1	0.0	0.0	118.77945491468343	0	0	0
139	1	1	0.0	-0.49999999999999994	119.64548031846786	0	0	0
140	1	1	0.0	0.0	120.5115057222523	0	0	0
141	1	1	0.0	-0.49999999999999994	121.37753112603673	0	0	0
142	1	1	0.0	0.0	122.24355652982116	0	0	0
143	1	1	0.0	-0.49999999999999994	123.1095819336056	0	0	0
144	1	1	0.0	0.0	123.97560733739003	0	0	0
145	1	1	0.0	-0.49999999999999994	124.84163274117446	0	0	0
146	1	1	0.0	0.0	125.7076581449589	0	0	0
147	1	1	0.0	-0.49999999999999994	126.57368354874333	0	0	0
148	1	1	0.0	0.0	127.43970895252777	0	0	0
149	1	1	0.0	-0.49999999999999994	128.3057343563122	0	0	0
150	1	1	0.0	0.0	129.17175976009665	0	0	0
151	1	1	0.0	-0.49999999999999994	130.0377851638811	0	0	0
152	1	1	-0.7257277944877565	-0.14592443601222055	130.62765774613484	0	0	0
153	1	1	-1.4514555889755067	-0.13422229386636864	131.31554016935638	0	0	0
154	1	1	-2.177183383463257	0.4673524305332133	131.64934702859014	0	0	0
155	1	1	-2.9029111779510073	0.4790545726790652	132.33722945181168	0	0	0
156	1	1	-3.6286389724387575	1.080629297078647	132.67103631104544	0	0	0
157	1	1	-4.354366766926508	1.092331439224499	133.35891873426698	0	0	0
158	1	1	-5.080094561414258	1.6939061636240809	133.69272559350074	0	0	0
159	1	1	-5.805822355902008	1.7056083057699327	134.38060801672228	0	0	0
160	1	1	-6.531550150389759	2.3071830301695146	134.71441487595604	0	0	0
161	1	1	-7.257277944877509	2.3188851723153667	135.40229729917758	0	0	0
162	1	1	-7.983005739365259	2.9204598967149487	135.73610415841134	0	0	0
163	1	1	-8.70873353385301	2.9321620388608007	136.42398658163287	0	0	0
164	1	1	-9.434461328340761	3.5337367632603827	136.75779344086664	0	0	0
165	1	1	-10.160189122828513	3.5454389054062347	137.44567586408817	0	0	0
166	1	1	-10.885916917316264	4.147013629805817	137.77948272332193	0	0	0
167	1	1	-11.611644711804015	4.158715771951669	138.46736514654347	0	0	0
168	1	1	-12.337372506291766	4.760290496351251	138.80117200577723	0	0	0
169	1	1	-13.063100300779517	4.771992638497103	139.48905442899877	0	0	0
170	1	1	-13.788828095267268	5.373567362896685	139.82286128823253	0	0	0
171	1	1	-14.51455588975502	5.385269505042537	140.51074371145407	0	0	0
172	1	1	-15.24028368424277	5.986844229442118	140.84455057068783	0	0	0
173	1	1	-15.966011478730522	5.99854637158797	141.53243299390937	0	0	0
174	1	1	-16.69173927321827	6.600121095987552	141.86623985314313	0	0	0
175	1	1	-17.41746706770602	6.611823238133404	142.55412227636467	0	0	0
176	1	1	-18.14319486219377	7.213397962532985	142.88792913559843	0	0	0
177	1	1	-18.86892265668152	7.2251001046788375	143.57581155881996	0	0	0
178	1	1	-19.59465045116927	7.826674829078419	143.90961841805373	0	0	0
179	1	1	-20.320378245657018	7.838376971224271	144.59750084127526	0	0	0
180	1	1	-21.046106040144767	8.439951695623853	144.93130770050902	0	0	0
181	1	1	-21.771833834632517	8.451653837769705	145.61919012373056	0	0	0
182	1	1	-22.497561629120266	9.053228562169286	145.95299698296432	0	0	0
183	1	1	-23.223289423608016	9.064930704315138	146.64087940618586	0	0	0
184	1	1	-23.949017218095765	9.66650542871472	146.97468626541962	0	0	0
185	1	1	-24.674745012583514	9.678207570860572	147.66256868864116	0	0	0
186	1	1	-25.400472807071264	10.279782295260153	147.99637554787492	0	0	0
187	1	1	-26.126200601559013	10.291484437406005	148.68425797109646	0	0	0
188	1	1	-26.851928396046763	10.893059161805587	149.01806483033022	0	0	0
189	1	1	-27.577656190534512	10.904761303951439	149.70594725355176	0	0	0
190	1	1	-28.30338398502226	11.50633602835102	150.03975411278552	0	0	0
191	1	1	-29.02911177951001	11.518038170496872	150.72763653600705	0	0	0
192	1	1	-29.75483957399776	12.119612894896454	151.06144339524081	0	0	0
193	1	1	-30.48056736848551	12.131315037042306	151.74932581846235	0	0	0
194	1	1	-31.20629516297326	12.732889761441887	152.0831326776961	0	0	0
195	1	1	-31.932022957461008	12.74459190358774	152.77101510091765	0	0	0
196	1	1	-32.65775075194876	13.346166627987321	153.1048219601514	0	0	0
197	1	1	-33.383478546436514	13.357868770133173	153.79270438337295	0	0	0
198	1	1	-34.10920634092427	13.959443494532755	154.1265112426067	0	0	0
199	1	1	-34.83493413541202	13.971145636678607	154.81439366582825	0	0	0
200	1	1	-35.56066192989977	14.572720361078188	155.148200525062	0	0	0
201	1	1	-36.286389724387526	14.58442250322404	155.83608294828355	0	0	0
202	1	1	-37.01211751887528	15.185997227623622	156.1698898075173	0	0	0
203	1	1	-37.73784531336303	15.197699369769474	156.85777223073885	0	0	0
204	1	1	-38.463573107850785	15.799274094169055	157.1915790899726	0	0	0
205	1	1	-39.18930090233854	15.810976236314907	157.87946151319414	0	0	0
206	1	1	-39.91502869682629	16.41255096071449	158.2132683724279	0	0	0
207	1	1	-40.64075649131404	16.42425310286034	158.90115079564944	0	0	0
208	1	1	-41.366484285801796	17.025827827259924	159.2349576548832	0	0	0
209	1	1	-42.09221208028955	17.037529969405774	159.92284007810474	0	0	0
210	1	1	-42.8179398747773	17.639104693805358	160.2566469373385	0	0	0
211	1	1	-43.543667669265055	17.650806835951208	160.94452936056004	0	0	0
212	1	1	-44.26939546375281	18.25238156035079	161.2783362197938	0	0	0
213	1	1	-44.99512325824056	18.26408370249664	161.96621864301534	0	0	0
214	1	1	-45.720851052728314	18.865658426896225	162.3000255022491	0	0	0
215	1	1	-46.44657884721607	18.877360569042075	162.98790792547064	0	0	0
216	1	1	-47.17230664170382	19.47893529344166	163.3217147847044	0	0	0
217	1	1	-47.89803443619157	19.49063743558751	164.00959720792594	0	0	0
218	1	1	-48.623762230679326	20.092212159987092	164.3434040671597	0	0	0
219	1	1	-49.34949002516708	20.103914302132942	165.03128649038123	0	0	0
220	1	1	-50.07521781965483	20.705489026532526	165.365093349615	0	0	0
221	1	1	-50.800945614142584	20.717191168678376	166.05297577283653	0	0	0
222	1	1	-51.52667340863034	21.31876589307796	166.3867826320703	0	0	0
223	1	1	-52.25240120311809	21.33046803522381	167.07466505529183	0	0	0
224	1	1	-52.97812899760584	21.932042759623393	167.4084719145256	0	0	0
225	1	1	-53.703856792093596	21.943744901769243	168.09635433774713	0	0	0
226	1	1	-54.42958458658135	22.545319626168826	168.4301611969809	0	0	0
227	1	1	-55.1553123810691	22.557021768314677	169.11804362020243	0	0	0
228	1	1	-55.881040175556855	23.15859649271426	169.4518504794362	0	0	0
229	1	1	-56.60676797004461	23.17029863486011	170.13973290265773	0	0	0
230	1	1	-57.33249576453236	23.771873359259693	170.4735397618915	0	0	0
231	1	1	-58.058223559020114	23.783575501405544	171.16142218511303	0	0	0
232	1	1	-58.78395135350787	24.385150225805127	171.4952290443468	0	0	0
233	1	1	-59.50967914799562	24.396852367950977	172.18311146756832	0	0	0
234	1	1	-60.23540694248337	24.99842709235056	172.51691832680208	0	0	0
235	1	1	-60.961134736971125	25.01012923449641	173.20480075002362	0	0	0
236	1	1	-61.68686253145888	25.611703958895994	173.53860760925738	0	0	0
237	1	1	-62.41259032594663	25.623406101041844	174.22649003247892	0	0	0
238	1	1	-63.138318120434384	26.224980825441428	174.56029689171268	0	0	0
239	1	1	-63.86404591492214	26.236682967587278	175.24817931493422	0	0	0
240	1	1	-64.58977370940988	26.83825769198686	175.58198617416798	0	0	0
241	1	1	-65.31550150389764	26.84995983413271	176.26986859738952	0	0	0
242	1	1	-66.04122929838539	27.451534558532295	176.60367545662328	0	0	0
243	1	1	-66.76695709287314	27.463236700678145	177.29155787984482	0	0	0
244	1	1	-67.4926848873609	28.06481142507773	177.62536473907858	0	0	0
245	1	1	-68.21841268184865	28.07651356722358	178.31324716230012	0	0	0
246	1	1	-68.9441404763364	28.678088291623162	178.64705402153388	0	0	0
247	1	1	-69.66986827082415	28.689790433769012	179.3349364447554	0	0	0
248	1	1	-70.3955960653119	29.291365158168595	179.66874330398917	0	0	0
249	1	1	-71.12132385979966	29.303067300314446	180.3566257272107	0	0	0
250	1	1	-71.84705165428741	29.90464202471403	180.69043258644447	0	0	0
251	1	1	-72.57277944877517	29.91634416685988	181.378315009666	0	0	0
252	1	1	-73.29850724326292	30.517918891259463	181.71212186889977	0	0	0
253	1	1	-74.02423503775067	30.529621033405313	182.4000042921213	0	0	0
254	1	1	-74.74996283223842	31.131195757804896	182.73381115135507	0	0	0
255	1	1	-75.47569062672618	31.142897899950746	183.4216935745766	0	0	0
256	1	1	-76.20141842121393	31.74447262435033	183.75550043381037	0	0	0
257	1	1	-76.92714621570168	31.75617476649618	184.4433828570319	0	0	0
258	1	1	-77.65287401018944	32.35774949089576	184.77718971626567	0	0	0
259	1	1	-78.37860180467719	32.36945163304161	185.4650721394872	0	0	0
260	1	1	-79.10432959916494	32.9710263574412	185.79887899872097	0	0	0
261	1	1	-79.8300573936527	32.98272849958705	186.4867614219425	0	0	0
262	1	1	-80.55578518814045	33.58430322398663	186.82056828117626	0	0	0
263	1	1	-81.2815129826282	33.59600536613248	187.5084507043978	0	0	0
264	1	1	-82.00724077711595	34.197580090532064	187.84225756363156	0	0	0
265	1	1	-82.7329685716037	34.209282232677914	188.5301399868531	0	0	0
266	1	1	-83.45869636609146	34.8108569570775	188.86394684608686	0	0	0
267	1	1	-84.18442416057921	34.82255909922335	189.5518292693084	0	0	0
268	1	1	-84.91015195506697	35.42413382362293	189.88563612854216	0	0	0
269	1	1	-85.63587974955472	35.43583596576878	190.5735185517637	0	0	0
270	1	1	-86.36160754404247	36.037410690168365	190.90732541099746	0	0	0
271	1	1	-87.08733533853022	36.049112832314215	191.595207834219	0	0	0
272	1	1	-87.81306313301798	36.6506875567138	191.92901469345276	0	0	0
273	1	1	-88.53879092750573	36.66238969885965	192.6168971166743	0	0	0
274	1	1	-89.26451872199348	37.26396442325923	192.95070397590806	0	0	0
275	1	1	-89.99024651648124	37.27566656540508	193.6385863991296	0	0	0
276	1	1	-90.71597431096899	37.877241289804665	193.97239325836335	0	0	0
277	1	1	-91.44170210545674	37.888943431950516	194.6602756815849	0	0	0
278	1	1	-92.1674298999445	38.4905181563501	194.99408254081865	0	0	0
279	1	1	-92.89315769443225	38.50222029849595	195.6819649640402	0	0	0
280	1	1	-93.61888548892	39.10379502289553	196.01577182327395	0	0	0
281	1	1	-94.34461328340775	39.11549716504138	196.7036542464955	0	0	0
282	1	1	-95.0703410778955	39.717071889440966	197.03746110572925	0	0	0
283	1	1	-95.79606887238326	39.728774031586816	197.7253435289508	0	0	0
284	1	1	-96.52179666687101	40.3303487559864	198.05915038818455	0	0	0
285	1	1	-97.24752446135876	40.34205089813225	198.7470328114061	0	0	0
286	1	1	-97.97325225584652	40.94362562253183	199.08083967063985	0	0	0
287	1	1	-98.69898005033427	40.95532776467768	199.76872209386138	0	0	0
288	1	1	-99.42470784482202	41.55690248907727	200.10252895309515	0	0	0
289	1	1	-100.15043563930978	41.56860463122312	200.79041137631668	0	0	0
290	1	1	-100.87616343379753	42.1701793556227	201.12421823555044	0	0	0
291	1	1	-101.60189122828528	42.18188149776855	201.81210065877198	0	0	0
292	1	1	-102.32761902277304	42.783456222168134	202.14590751800574	0	0	0
293	1	1	-103.05334681726079	42.795158364313984	202.83378994122728	0	0	0
294	1	1	-103.77907461174854	43.39673308871357	203.16759680046104	0	0	0
295	1	1	-104.5048024062363	43.40843523085942	203.85547922368258	0	0	0
296	1	1	-105.23053020072405	44.010009955259	204.18928608291634	0	0	0
297	1	1	-105.9562579952118	44.02171209740485	204.87716850613788	0	0	0
298	1	1	-106.68198578969955	44.623286821804435	205.21097536537164	0	0	0
299	1	1	-107.4077135841873	44.634988963950285	205.89885778859318	0	0	0
300	1	1	-108.13344137867506	45.23656368834987	206.23266464782694	0	0	0
301	1	1	-108.85916917316281	45.24826583049572	206.92054707104847	0	0	0
302	1	1	0.8838428908485471	-0.38309708055341196	130.49072605596456	0	0	0
303	1	1	1.7676857816970868	-0.5083266285778321	130.94143583464492	0	0	0
304	1	1	2.6515286725456266	-0.18061528451879155	131.27524269387868	0	0	0
305	1	1	3.5353715633941665	-0.3058448325432116	131.72595247255904	0	0	0
306	1	1	4.419214454242706	0.021866511515828913	132.0597593317928	0	0	0
307	1	1	5.303057345091245	-0.10336303650859116	132.51046911047317	0	0	0
308	1	1	6.186900235939785	0.22434830755044935	132.84427596970693	0	0	0
309	1	1	7.070743126788324	0.09911875952602928	133.2949857483873	0	0	0
310	1	1	7.9545860176368635	0.4268301035850698	133.62879260762105	0	0	0
311	1	1	8.838428908485403	0.3016005555606497	134.0795023863014	0	0	0
312	1	1	9.722271799333942	0.6293118996196903	134.41330924553517	0	0	0
313	1	1	10.606114690182482	0.5040823515952702	134.86401902421554	0	0	0
314	1	1	11.489957581031021	0.8317936956543106	135.1978258834493	0	0	0
315	1	1	12.37380047187956	0.7065641476298905	135.64853566212966	0	0	0
316	1	1	13.2576433627281	1.034275491688931	135.98234252136342	0	0	0
317	1	1	14.14148625357664	0.9090459436645109	136.43305230004378	0	0	0
318	1	1	15.025329144425179	1.2367572877235513	136.76685915927754	0	0	0
319	1	1	15.909172035273718	1.1115277396991312	137.2175689379579	0	0	0
320	1	1	16.793014926122257	1.4392390837581717	137.55137579719167	0	0	0
321	1	1	17.6768578169708	1.3140095357337516	138.00208557587203	0	0	0
322	1	1	18.56070070781934	1.641720879792792	138.3358924351058	0	0	0
323	1	1	19.44454359866788	1.516491331768372	138.78660221378615	0	0	0
324	1	1	20.328386489516422	1.8442026758274124	139.1204090730199	0	0	0
325	1	1	21.212229380364963	1.7189731278029923	139.57111885170028	0	0	0
326	1	1	22.096072271213504	2.046684471862033	139.90492571093404	0	0	0
327	1	1	22.979915162062046	1.9214549238376128	140.3556354896144	0	0	0
328	1	1	23.863758052910587	2.2491662678966535	140.68944234884816	0	0	0
329	1	1	24.747600943759128	2.1239367198722334	141.14015212752852	0	0	0
330	1	1	25.63144383460767	2.451648063931274	141.47395898676228	0	0	0
331	1	1	26.51528672545621	2.326418515906854	141.92466876544265	0	0	0
332	1	1	27.39912961630475	2.6541298599658947	142.2584756246764	0	0	0
333	1	1	28.282972507153293	2.5289003119414746	142.70918540335677	0	0	0
334	1	1	29.166815398001834	2.8566116560005153	143.04299226259053	0	0	0
335	1	1	30.050658288850375	2.731382107976095	143.4937020412709	0	0	0
336	1	1	30.934501179698916	3.059093452035136	143.82750890050465	0	0	0
337	1	1	31.818344070547457	2.9338639040107157	144.27821867918502	0	0	0
338	1	1	32.702186961395995	3.2615752480697564	144.61202553841878	0	0	0
339	1	1	33.586029852244536	3.1363457000453363	145.06273531709914	0	0	0
340	1	1	34.46987274309308	3.464057044104377	145.3965421763329	0	0	0
341	1	1	35.35371563394162	3.338827496079957	145.84725195501326	0	0	0
342	1	1	36.23755852479016	3.6665388401389976	146.18105881424702	0	0	0
343	1	1	37.1214014156387	3.5413092921145775	146.6317685929274	0	0	0
344	1	1	38.00524430648724	3.869020636173618	146.96557545216115	0	0	0
345	1	1	38.88908719733578	3.743791088149198	147.4162852308415	0	0	0
346	1	1	39.772930088184324	4.071502432208239	147.75009209007527	0	0	0
347	1	1	40.656772979032866	3.9462728841838186	148.20080186875563	0	0	0
348	1	1	41.54061586988141	4.273984228242859	148.5346087279894	0	0	0
349	1	1	42.42445876072995	4.148754680218439	148.98531850666976	0	0	0
350	1	1	43.30830165157849	4.47646602427748	149.31912536590352	0	0	0
351	1	1	44.19214454242703	4.35123647625306	149.76983514458388	0	0	0
352	1	1	45.07598743327557	4.678947820312101	150.10364200381764	0	0	0
353	1	1	45.95983032412411	4.553718272287681	150.554351782498	0	0	0
354	1	1	46.843673214972654	4.881429616346722	150.88815864173176	0	0	0
355	1	1	47.727516105821195	4.756200068322302	151.33886842041213	0	0	0
356	1	1	48.611358996669736	5.083911412381343	151.6726752796459	0	0	0
357	1	1	49.49520188751828	4.958681864356923	152.12338505832625	0	0	0
358	1	1	50.37904477836682	5.286393208415964	152.45719191756	0	0	0
359	1	1	51.26288766921536	5.161163660391544	152.90790169624037	0	0	0
360	1	1	52.1467305600639	5.488875004450585	153.24170855547413	0	0	0
361	1	1	53.03057345091244	5.363645456426165	153.6924183341545	0	0	0
362	1	1	53.91441634176098	5.691356800485206	154.02622519338826	0	0	0
363	1	1	54.798259232609524	5.566127252460786	154.47693497206862	0	0	0
364	1	1	55.682102123458066	5.893838596519827	154.81074183130238	0	0	0
365	1	1	56.56594501430661	5.768609048495407	155.26145160998274	0	0	0
366	1	1	57.44978790515515	6.096320392554448	155.5952584692165	0	0	0
367	1	1	58.33363079600369	5.971090844530028	156.04596824789687	0	0	0
368	1	1	59.21747368685223	6.298802188589069	156.37977510713063	0	0	0
369	1	1	60.10131657770077	6.173572640564649	156.830484885811	0	0	0
370	1	1	60.98515946854931	6.50128398462369	157.16429174504475	0	0	0
371	1	1	61.869002359397854	6.37605443659927	157.6150015237251	0	0	0
372	1	1	62.752845250246395	6.703765780658311	157.94880838295887	0	0	0
373	1	1	63.636688141094936	6.578536232633891	158.39951816163924	0	0	0
374	1	1	64.52053103194348	6.906247576692932	158.733325020873	0	0	0
375	1	1	65.40437392279202	6.781018028668512	159.18403479955336	0	0	0
376	1	1	66.28821681364056	7.108729372727553	159.51784165878712	0	0	0
377	1	1	67.1720597044891	6.9834998247031335	159.96855143746748	0	0	0
378	1	1	68.05590259533764	7.311211168762174	160.30235829670124	0	0	0
379	1	1	68.93974548618618	7.1859816207377545	160.7530680753816	0	0	0
380	1	1	69.82358837703472	7.513692964796795	161.08687493461537	0	0	0
381	1	1	70.70743126788327	7.3884634167723755	161.53758471329573	0	0	0
382	1	1	71.5912741587318	7.716174760831416	161.8713915725295	0	0	0
383	1	1	72.47511704958035	7.5909452128069965	162.32210135120985	0	0	0
384	1	1	73.35895994042889	7.918656556866037	162.6559082104436	0	0	0
385	1	1	74.24280283127743	7.7934270088416175	163.10661798912398	0	0	0
386	1	1	75.12664572212597	8.121138352900658	163.44042484835774	0	0	0
387	1	1	76.01048861297451	7.995908804876239	163.8911346270381	0	0	0
388	1	1	76.89433150382305	8.323620148935278	164.22494148627186	0	0	0
389	1	1	77.7781743946716	8.198390600910859	164.67565126495222	0	0	0
390	1	1	78.66201728552014	8.526101944969898	165.00945812418598	0	0	0
391	1	1	79.54586017636868	8.400872396945479	165.46016790286635	0	0	0
392	1	1	80.42970306721722	8.728583741004519	165.7939747621001	0	0	0
393	1	1	81.31354595806576	8.603354192980099	166.24468454078047	0	0	0
394	1	1	82.1973888489143	8.931065537039139	166.57849140001423	0	0	0
395	1	1	83.08123173976284	8.805835989014719	167.0292011786946	0	0	0
396	1	1	83.96507463061138	9.133547333073759	167.36300803792835	0	0	0
397	1	1	84.84891752145992	9.00831778504934	167.81371781660872	0	0	0
398	1	1	85.73276041230847	9.336029129108379	168.14752467584248	0	0	0
399	1	1	86.616603303157	9.21079958108396	168.59823445452284	0	0	0
400	1	1	87.50044619400555	9.538510925143	168.9320413137566	0	0	0
401	1	1	88.38428908485409	9.41328137711858	169.38275109243696	0	0	0
402	1	1	89.26813197570263	9.74099272117762	169.71655795167072	0	0	0
403	1	1	90.15197486655117	9.6157631731532	170.16726773035109	0	0	0
404	1	1	91.03581775739971	9.94347451721224	170.50107458958485	0	0	0
405	1	1	91.91966064824825	9.81824496918782	170.9517843682652	0	0	0
406	1	1	92.8035035390968	10.14595631324686	171.28559122749897	0	0	0
407	1	1	93.68734642994534	10.02072676522244	171.73630100617933	0	0	0
408	1	1	94.57118932079388	10.34843810928148	172.0701078654131	0	0	0
409	1	1	95.45503221164242	10.22320856125706	172.52081764409346	0	0	0
410	1	1	96.33887510249096	10.5509199053161	172.85462450332722	0	0	0
411	1	1	97.2227179933395	10.42569035729168	173.30533428200758	0	0	0
412	1	1	98.10656088418804	10.75340170135072	173.63914114124134	0	0	0
413	1	1	98.99040377503658	10.6281721533263	174.0898509199217	0	0	0
414	1	1	99.87424666588512	10.95588349738534	174.42365777915546	0	0	0
415	1	1	100.75808955673367	10.83065394936092	174.87436755783582	0	0	0
416	1	1	101.6419324475822	11.15836529341996	175.20817441706959	0	0	0
417	1	1	102.52577533843075	11.03313574539554	175.65888419574995	0	0	0
418	1	1	103.40961822927929	11.36084708945458	175.9926910549837	0	0	0
419	1	1	104.29346112012783	11.23561754143016	176.44340083366407	0	0	0
420	1	1	105.17730401097637	11.5633288854892	176.77720769289783	0	0	0
421	1	1	106.06114690182491	11.43809933746478	177.2279174715782	0	0	0
422	1	1	106.94498979267345	11.76581068152382	177.56172433081196	0	0	0
423	1	1	107.828832683522	11.640581133499401	178.01243410949232	0	0	0
424	1	1	108.71267557437054	11.96829247755844	178.34624096872608	0	0	0
425	1	1	109.59651846521908	11.843062929534021	178.79695074740644	0	0	0
426	1	1	110.48036135606762	12.17077427359306	179.1307576066402	0	0	0
427	1	1	111.36420424691616	12.045544725568641	179.58146738532056	0	0	0
428	1	1	112.2480471377647	12.373256069627681	179.91527424455433	0	0	0
429	1	1	113.13189002861324	12.248026521603261	180.3659840232347	0	0	0
430	1	1	114.01573291946178	12.575737865662301	180.69979088246845	0	0	0
431	1	1	114.89957581031032	12.450508317637881	181.1505006611488	0	0	0
432	1	1	115.78341870115887	12.778219661696921	181.48430752038257	0	0	0
433	1	1	116.6672615920074	12.652990113672502	181.93501729906293	0	0	0
434	1	1	117.55110448285595	12.980701457731541	182.2688241582967	0	0	0
435	1	1	118.43494737370449	12.855471909707122	182.71953393697706	0	0	0
436	1	1	119.31879026455303	13.183183253766162	183.05334079621082	0	0	0
437	1	1	120.20263315540157	13.057953705741742	183.50405057489118	0	0	0
438	1	1	121.08647604625011	13.385665049800782	183.83785743412494	0	0	0
439	1	1	121.97031893709865	13.260435501776362	184.2885672128053	0	0	0
440	1	1	122.8541618279472	13.588146845835402	184.62237407203907	0	0	0
441	1	1	123.73800471879574	13.462917297810982	185.07308385071943	0	0	0
442	1	1	124.62184760964428	13.790628641870022	185.4068907099532	0	0	0
443	1	1	125.50569050049282	13.665399093845602	185.85760048863355	0	0	0
444	1	1	126.38953339134136	13.993110437904642	186.1914073478673	0	0	0
445	1	1	127.2733762821899	13.867880889880222	186.64211712654767	0	0	0
446	1	1	128.15721917303844	14.195592233939262	186.97592398578144	0	0	0
447	1	1	129.04106206388698	14.070362685914843	187.4266337644618	0	0	0
448	1	1	129.92490495473552	14.398074029973882	187.76044062369556	0	0	0
449	1	1	130.80874784558407	14.272844481949463	188.21115040237592	0	0	0
450	1	1	131.6925907364326	14.600555826008502	188.54495726160968	0	0	0
451	1	1	132.57643362728115	14.475326277984083	188.99566704029004	0	0	0
452	1	1	-0.15811509636081664	-1.4716887722850318	129.86222734970573	0	0	0
453	1	1	-0.316230192721632	-2.2254170265682913	129.2243454366545	0	0	0
454	1	1	-0.47434528908244733	-3.1547030950269184	129.55815229588828	0	0	0
455	1	1	-0.6324603854432627	-3.908431349310178	128.92027038283703	0	0	0
456	1	1	-0.790575481804078	-4.837717417768805	129.25407724207082	0	0	0
457	1	1	-0.9486905781648933	-5.591445672052064	128.61619532901958	0	0	0
458	1	1	-1.1068056745257087	-6.5207317405106915	128.95000218825336	0	0	0
459	1	1	-1.264920770886524	-7.274459994793951	128.31212027520212	0	0	0
460	1	1	-1.4230358672473393	-8.203746063252577	128.6459271344359	0	0	0
461	1	1	-1.5811509636081547	-8.957474317535837	128.00804522138466	0	0	0
462	1	1	-1.73926605996897	-9.886760385994464	128.34185208061845	0	0	0
463	1	1	-1.8973811563297853	-10.640488640277724	127.7039701675672	0	0	0
464	1	1	-2.0554962526906007	-11.56977470873635	128.037777026801	0	0	0
465	1	1	-2.213611349051416	-12.32350296301961	127.39989511374975	0	0	0
466	1	1	-2.3717264454122313	-13.252789031478237	127.73370197298352	0	0	0
467	1	1	-2.5298415417730467	-14.006517285761497	127.09582005993228	0	0	0
468	1	1	-2.687956638133862	-14.935803354220123	127.42962691916605	0	0	0
469	1	1	-2.8460717344946773	-15.689531608503383	126.79174500611481	0	0	0
470	1	1	-3.0041868308554927	-16.61881767696201	127.12555186534858	0	0	0
471	1	1	-3.162301927216308	-17.37254593124527	126.48766995229734	0	0	0
472	1	1	-3.3204170235771233	-18.301831999703897	126.82147681153111	0	0	0
473	1	1	-3.4785321199379386	-19.055560253987156	126.18359489847987	0	0	0