bb401nuc1bl200bn4d30tot800V2

801 atoms
800 bonds
802 angles

1 atom types
1 bond types
1 angle types

-1000 1000 xlo xhi
-1000 1000 ylo yhi
-1000 1000 zlo zhi

Masses

1 1

Atoms

1	1	1	0.0	0.0	0.0	0	0	0
2	1	1	0.0	0.0	1.0	0	0	0
3	1	1	0.0	-0.49999999999999994	1.8660254037844388	0	0	0
4	1	1	0.0	0.0	2.7320508075688776	0	0	0
5	1	1	0.0	-0.49999999999999994	3.5980762113533165	0	0	0
6	1	1	0.0	0.0	4.464101615137755	0	0	0
7	1	1	0.0	-0.49999999999999994	5.330127018922194	0	0	0
8	1	1	0.0	0.0	6.196152422706632	0	0	0
9	1	1	0.0	-0.49999999999999994	7.06217782649107	0	0	0
10	1	1	0.0	0.0	7.928203230275509	0	0	0
11	1	1	0.0	-0.49999999999999994	8.794228634059948	0	0	0
12	1	1	0.0	0.0	9.660254037844387	0	0	0
13	1	1	0.0	-0.49999999999999994	10.526279441628827	0	0	0
14	1	1	0.0	0.0	11.392304845413266	0	0	0
15	1	1	0.0	-0.49999999999999994	12.258330249197705	0	0	0
16	1	1	0.0	0.0	13.124355652982144	0	0	0
17	1	1	0.0	-0.49999999999999994	13.990381056766584	0	0	0
18	1	1	0.0	0.0	14.856406460551023	0	0	0
19	1	1	0.0	-0.49999999999999994	15.722431864335462	0	0	0
20	1	1	0.0	0.0	16.5884572681199	0	0	0
21	1	1	0.0	-0.49999999999999994	17.454482671904337	0	0	0
22	1	1	0.0	0.0	18.320508075688775	0	0	0
23	1	1	0.0	-0.49999999999999994	19.186533479473212	0	0	0
24	1	1	0.0	0.0	20.05255888325765	0	0	0
25	1	1	0.0	-0.49999999999999994	20.918584287042087	0	0	0
26	1	1	0.0	0.0	21.784609690826525	0	0	0
27	1	1	0.0	-0.49999999999999994	22.650635094610962	0	0	0
28	1	1	0.0	0.0	23.5166604983954	0	0	0
29	1	1	0.0	-0.49999999999999994	24.382685902179837	0	0	0
30	1	1	0.0	0.0	25.248711305964274	0	0	0
31	1	1	0.0	-0.49999999999999994	26.114736709748712	0	0	0
32	1	1	0.0	0.0	26.98076211353315	0	0	0
33	1	1	0.0	-0.49999999999999994	27.846787517317587	0	0	0
34	1	1	0.0	0.0	28.712812921102024	0	0	0
35	1	1	0.0	-0.49999999999999994	29.578838324886462	0	0	0
36	1	1	0.0	0.0	30.4448637286709	0	0	0
37	1	1	0.0	-0.49999999999999994	31.310889132455337	0	0	0
38	1	1	0.0	0.0	32.17691453623978	0	0	0
39	1	1	0.0	-0.49999999999999994	33.04293994002422	0	0	0
40	1	1	0.0	0.0	33.90896534380866	0	0	0
41	1	1	0.0	-0.49999999999999994	34.7749907475931	0	0	0
42	1	1	0.0	0.0	35.64101615137754	0	0	0
43	1	1	0.0	-0.49999999999999994	36.50704155516198	0	0	0
44	1	1	0.0	0.0	37.373066958946424	0	0	0
45	1	1	0.0	-0.49999999999999994	38.239092362730865	0	0	0
46	1	1	0.0	0.0	39.105117766515306	0	0	0
47	1	1	0.0	-0.49999999999999994	39.97114317029975	0	0	0
48	1	1	0.0	0.0	40.83716857408419	0	0	0
49	1	1	0.0	-0.49999999999999994	41.70319397786863	0	0	0
50	1	1	0.0	0.0	42.56921938165307	0	0	0
51	1	1	0.0	-0.49999999999999994	43.43524478543751	0	0	0
52	1	1	0.0	0.0	44.30127018922195	0	0	0
53	1	1	0.0	-0.49999999999999994	45.16729559300639	0	0	0
54	1	1	0.0	0.0	46.033320996790835	0	0	0
55	1	1	0.0	-0.49999999999999994	46.899346400575276	0	0	0
56	1	1	0.0	0.0	47.76537180435972	0	0	0
57	1	1	0.0	-0.49999999999999994	48.63139720814416	0	0	0
58	1	1	0.0	0.0	49.4974226119286	0	0	0
59	1	1	0.0	-0.49999999999999994	50.36344801571304	0	0	0
60	1	1	0.0	0.0	51.22947341949748	0	0	0
61	1	1	0.0	-0.49999999999999994	52.09549882328192	0	0	0
62	1	1	0.0	0.0	52.96152422706636	0	0	0
63	1	1	0.0	-0.49999999999999994	53.827549630850804	0	0	0
64	1	1	0.0	0.0	54.693575034635245	0	0	0
65	1	1	0.0	-0.49999999999999994	55.559600438419686	0	0	0
66	1	1	0.0	0.0	56.42562584220413	0	0	0
67	1	1	0.0	-0.49999999999999994	57.29165124598857	0	0	0
68	1	1	0.0	0.0	58.15767664977301	0	0	0
69	1	1	0.0	-0.49999999999999994	59.02370205355745	0	0	0
70	1	1	0.0	0.0	59.88972745734189	0	0	0
71	1	1	0.0	-0.49999999999999994	60.75575286112633	0	0	0
72	1	1	0.0	0.0	61.62177826491077	0	0	0
73	1	1	0.0	-0.49999999999999994	62.487803668695214	0	0	0
74	1	1	0.0	0.0	63.353829072479655	0	0	0
75	1	1	0.0	-0.49999999999999994	64.21985447626409	0	0	0
76	1	1	0.0	0.0	65.08587988004852	0	0	0
77	1	1	0.0	-0.49999999999999994	65.95190528383296	0	0	0
78	1	1	0.0	0.0	66.81793068761739	0	0	0
79	1	1	0.0	-0.49999999999999994	67.68395609140183	0	0	0
80	1	1	0.0	0.0	68.54998149518626	0	0	0
81	1	1	0.0	-0.49999999999999994	69.41600689897069	0	0	0
82	1	1	0.0	0.0	70.28203230275513	0	0	0
83	1	1	0.0	-0.49999999999999994	71.14805770653956	0	0	0
84	1	1	0.0	0.0	72.014083110324	0	0	0
85	1	1	0.0	-0.49999999999999994	72.88010851410843	0	0	0
86	1	1	0.0	0.0	73.74613391789286	0	0	0
87	1	1	0.0	-0.49999999999999994	74.6121593216773	0	0	0
88	1	1	0.0	0.0	75.47818472546173	0	0	0
89	1	1	0.0	-0.49999999999999994	76.34421012924616	0	0	0
90	1	1	0.0	0.0	77.2102355330306	0	0	0
91	1	1	0.0	-0.49999999999999994	78.07626093681503	0	0	0
92	1	1	0.0	0.0	78.94228634059947	0	0	0
93	1	1	0.0	-0.49999999999999994	79.8083117443839	0	0	0
94	1	1	0.0	0.0	80.67433714816833	0	0	0
95	1	1	0.0	-0.49999999999999994	81.54036255195277	0	0	0
96	1	1	0.0	0.0	82.4063879557372	0	0	0
97	1	1	0.0	-0.49999999999999994	83.27241335952164	0	0	0
98	1	1	0.0	0.0	84.13843876330607	0	0	0
99	1	1	0.0	-0.49999999999999994	85.0044641670905	0	0	0
100	1	1	0.0	0.0	85.87048957087494	0	0	0
101	1	1	0.0	-0.49999999999999994	86.73651497465937	0	0	0
102	1	1	0.0	0.0	87.6025403784438	0	0	0
103	1	1	0.0	-0.49999999999999994	88.46856578222824	0	0	0
104	1	1	0.0	0.0	89.33459118601267	0	0	0
105	1	1	0.0	-0.49999999999999994	90.20061658979711	0	0	0
106	1	1	0.0	0.0	91.06664199358154	0	0	0
107	1	1	0.0	-0.49999999999999994	91.93266739736598	0	0	0
108	1	1	0.0	0.0	92.79869280115041	0	0	0
109	1	1	0.0	-0.49999999999999994	93.66471820493484	0	0	0
110	1	1	0.0	0.0	94.53074360871928	0	0	0
111	1	1	0.0	-0.49999999999999994	95.39676901250371	0	0	0
112	1	1	0.0	0.0	96.26279441628814	0	0	0
113	1	1	0.0	-0.49999999999999994	97.12881982007258	0	0	0
114	1	1	0.0	0.0	97.99484522385701	0	0	0
115	1	1	0.0	-0.49999999999999994	98.86087062764145	0	0	0
116	1	1	0.0	0.0	99.72689603142588	0	0	0
117	1	1	0.0	-0.49999999999999994	100.59292143521031	0	0	0
118	1	1	0.0	0.0	101.45894683899475	0	0	0
119	1	1	0.0	-0.49999999999999994	102.32497224277918	0	0	0
120	1	1	0.0	0.0	103.19099764656362	0	0	0
121	1	1	0.0	-0.49999999999999994	104.05702305034805	0	0	0
122	1	1	0.0	0.0	104.92304845413248	0	0	0
123	1	1	0.0	-0.49999999999999994	105.78907385791692	0	0	0
124	1	1	0.0	0.0	106.65509926170135	0	0	0
125	1	1	0.0	-0.49999999999999994	107.52112466548579	0	0	0
126	1	1	0.0	0.0	108.38715006927022	0	0	0
127	1	1	0.0	-0.49999999999999994	109.25317547305465	0	0	0
128	1	1	0.0	0.0	110.11920087683909	0	0	0
129	1	1	0.0	-0.49999999999999994	110.98522628062352	0	0	0
130	1	1	0.0	0.0	111.85125168440796	0	0	0
131	1	1	0.0	-0.49999999999999994	112.71727708819239	0	0	0
132	1	1	0.0	0.0	113.58330249197682	0	0	0
133	1	1	0.0	-0.49999999999999994	114.44932789576126	0	0	0
134	1	1	0.0	0.0	115.31535329954569	0	0	0
135	1	1	0.0	-0.49999999999999994	116.18137870333013	0	0	0
136	1	1	0.0	0.0	117.04740410711456	0	0	0
137	1	1	0.0	-0.49999999999999994	117.913429510899	0	0	0
138	1	1	0.0	0.0	118.77945491468343	0	0	0
139	1	1	0.0	-0.49999999999999994	119.64548031846786	0	0	0
140	1	1	0.0	0.0	120.5115057222523	0	0	0
141	1	1	0.0	-0.49999999999999994	121.37753112603673	0	0	0
142	1	1	0.0	0.0	122.24355652982116	0	0	0
143	1	1	0.0	-0.49999999999999994	123.1095819336056	0	0	0
144	1	1	0.0	0.0	123.97560733739003	0	0	0
145	1	1	0.0	-0.49999999999999994	124.84163274117446	0	0	0
146	1	1	0.0	0.0	125.7076581449589	0	0	0
147	1	1	0.0	-0.49999999999999994	126.57368354874333	0	0	0
148	1	1	0.0	0.0	127.43970895252777	0	0	0
149	1	1	0.0	-0.49999999999999994	128.3057343563122	0	0	0
150	1	1	0.0	0.0	129.17175976009665	0	0	0
151	1	1	0.0	-0.49999999999999994	130.0377851638811	0	0	0
152	1	1	0.0	0.0	130.90381056766554	0	0	0
153	1	1	0.0	-0.49999999999999994	131.76983597145	0	0	0
154	1	1	0.0	0.0	132.63586137523444	0	0	0
155	1	1	0.0	-0.49999999999999994	133.5018867790189	0	0	0
156	1	1	0.0	0.0	134.36791218280334	0	0	0
157	1	1	0.0	-0.49999999999999994	135.23393758658779	0	0	0
158	1	1	0.0	0.0	136.09996299037223	0	0	0
159	1	1	0.0	-0.49999999999999994	136.96598839415668	0	0	0
160	1	1	0.0	0.0	137.83201379794113	0	0	0
161	1	1	0.0	-0.49999999999999994	138.69803920172558	0	0	0
162	1	1	0.0	0.0	139.56406460551003	0	0	0
163	1	1	0.0	-0.49999999999999994	140.43009000929447	0	0	0
164	1	1	0.0	0.0	141.29611541307892	0	0	0
165	1	1	0.0	-0.49999999999999994	142.16214081686337	0	0	0
166	1	1	0.0	0.0	143.02816622064782	0	0	0
167	1	1	0.0	-0.49999999999999994	143.89419162443227	0	0	0
168	1	1	0.0	0.0	144.76021702821672	0	0	0
169	1	1	0.0	-0.49999999999999994	145.62624243200116	0	0	0
170	1	1	0.0	0.0	146.4922678357856	0	0	0
171	1	1	0.0	-0.49999999999999994	147.35829323957006	0	0	0
172	1	1	0.0	0.0	148.2243186433545	0	0	0
173	1	1	0.0	-0.49999999999999994	149.09034404713896	0	0	0
174	1	1	0.0	0.0	149.9563694509234	0	0	0
175	1	1	0.0	-0.49999999999999994	150.82239485470785	0	0	0
176	1	1	0.0	0.0	151.6884202584923	0	0	0
177	1	1	0.0	-0.49999999999999994	152.55444566227675	0	0	0
178	1	1	0.0	0.0	153.4204710660612	0	0	0
179	1	1	0.0	-0.49999999999999994	154.28649646984564	0	0	0
180	1	1	0.0	0.0	155.1525218736301	0	0	0
181	1	1	0.0	-0.49999999999999994	156.01854727741454	0	0	0
182	1	1	0.0	0.0	156.884572681199	0	0	0
183	1	1	0.0	-0.49999999999999994	157.75059808498344	0	0	0
184	1	1	0.0	0.0	158.61662348876789	0	0	0
185	1	1	0.0	-0.49999999999999994	159.48264889255233	0	0	0
186	1	1	0.0	0.0	160.34867429633678	0	0	0
187	1	1	0.0	-0.49999999999999994	161.21469970012123	0	0	0
188	1	1	0.0	0.0	162.08072510390568	0	0	0
189	1	1	0.0	-0.49999999999999994	162.94675050769013	0	0	0
190	1	1	0.0	0.0	163.81277591147457	0	0	0
191	1	1	0.0	-0.49999999999999994	164.67880131525902	0	0	0
192	1	1	0.0	0.0	165.54482671904347	0	0	0
193	1	1	0.0	-0.49999999999999994	166.41085212282792	0	0	0
194	1	1	0.0	0.0	167.27687752661237	0	0	0
195	1	1	0.0	-0.49999999999999994	168.14290293039682	0	0	0
196	1	1	0.0	0.0	169.00892833418126	0	0	0
197	1	1	0.0	-0.49999999999999994	169.8749537379657	0	0	0
198	1	1	0.0	0.0	170.74097914175016	0	0	0
199	1	1	0.0	-0.49999999999999994	171.6070045455346	0	0	0
200	1	1	0.0	0.0	172.47302994931906	0	0	0
201	1	1	0.0	-0.49999999999999994	173.3390553531035	0	0	0
202	1	1	0.7843924604407473	-0.21416058146888983	173.88953177840938	0	0	0
203	1	1	1.5687849208814884	-0.24185459627090847	174.50917805617425	0	0	0
204	1	1	2.3531773813222294	0.28092781423293367	174.842984915408	0	0	0
205	1	1	3.1375698417629705	0.25323379943091506	175.46263119317288	0	0	0
206	1	1	3.9219623022037116	0.7760162099347572	175.79643805240664	0	0	0
207	1	1	4.706354762644453	0.7483221951327386	176.41608433017151	0	0	0
208	1	1	5.490747223085194	1.2711046056365807	176.74989118940528	0	0	0
209	1	1	6.275139683525935	1.243410590834562	177.36953746717015	0	0	0
210	1	1	7.059532143966676	1.7661930013384042	177.7033443264039	0	0	0
211	1	1	7.843924604407417	1.7384989865363856	178.32299060416878	0	0	0
212	1	1	8.628317064848158	2.2612813970402277	178.65679746340254	0	0	0
213	1	1	9.4127095252889	2.233587382238209	179.2764437411674	0	0	0
214	1	1	10.19710198572964	2.756369792742051	179.61025060040117	0	0	0
215	1	1	10.98149444617038	2.7286757779400324	180.22989687816604	0	0	0
216	1	1	11.76588690661112	3.2514581884438742	180.5637037373998	0	0	0
217	1	1	12.55027936705186	3.2237641736418556	181.18335001516468	0	0	0
218	1	1	13.3346718274926	3.7465465841456975	181.51715687439844	0	0	0
219	1	1	14.119064287933341	3.718852569343679	182.1368031521633	0	0	0
220	1	1	14.903456748374081	4.241634979847521	182.47061001139707	0	0	0
221	1	1	15.687849208814821	4.213940965045502	183.09025628916194	0	0	0
222	1	1	16.472241669255563	4.736723375549344	183.4240631483957	0	0	0
223	1	1	17.256634129696305	4.7090293607473255	184.04370942616058	0	0	0
224	1	1	18.041026590137047	5.231811771251167	184.37751628539434	0	0	0
225	1	1	18.82541905057779	5.204117756449149	184.9971625631592	0	0	0
226	1	1	19.60981151101853	5.726900166952991	185.33096942239297	0	0	0
227	1	1	20.394203971459273	5.699206152150972	185.95061570015784	0	0	0
228	1	1	21.178596431900015	6.221988562654814	186.2844225593916	0	0	0
229	1	1	21.962988892340757	6.194294547852795	186.90406883715647	0	0	0
230	1	1	22.7473813527815	6.717076958356637	187.23787569639023	0	0	0
231	1	1	23.53177381322224	6.689382943554619	187.8575219741551	0	0	0
232	1	1	24.316166273662983	7.2121653540584605	188.19132883338887	0	0	0
233	1	1	25.100558734103725	7.184471339256442	188.81097511115374	0	0	0
234	1	1	25.884951194544467	7.707253749760284	189.1447819703875	0	0	0
235	1	1	26.66934365498521	7.679559734958265	189.76442824815237	0	0	0
236	1	1	27.45373611542595	8.202342145462108	190.09823510738613	0	0	0
237	1	1	28.238128575866693	8.174648130660088	190.717881385151	0	0	0
238	1	1	29.022521036307435	8.69743054116393	191.05168824438476	0	0	0
239	1	1	29.806913496748177	8.66973652636191	191.67133452214964	0	0	0
240	1	1	30.59130595718892	9.192518936865753	192.0051413813834	0	0	0
241	1	1	31.37569841762966	9.164824922063733	192.62478765914827	0	0	0
242	1	1	32.1600908780704	9.687607332567575	192.95859451838203	0	0	0
243	1	1	32.94448333851114	9.659913317765556	193.5782407961469	0	0	0
244	1	1	33.72887579895188	10.182695728269398	193.91204765538066	0	0	0
245	1	1	34.513268259392625	10.155001713467378	194.53169393314553	0	0	0
246	1	1	35.29766071983337	10.67778412397122	194.8655007923793	0	0	0
247	1	1	36.08205318027411	10.6500901091692	195.48514707014417	0	0	0
248	1	1	36.86644564071485	11.172872519673042	195.81895392937793	0	0	0
249	1	1	37.65083810115559	11.145178504871023	196.4386002071428	0	0	0
250	1	1	38.435230561596335	11.667960915374865	196.77240706637656	0	0	0
251	1	1	39.21962302203708	11.640266900572845	197.39205334414143	0	0	0
252	1	1	40.00401548247782	12.163049311076687	197.7258602033752	0	0	0
253	1	1	40.78840794291856	12.135355296274668	198.34550648114006	0	0	0
254	1	1	41.5728004033593	12.65813770677851	198.67931334037382	0	0	0
255	1	1	42.357192863800044	12.63044369197649	199.2989596181387	0	0	0
256	1	1	43.141585324240786	13.153226102480332	199.63276647737246	0	0	0
257	1	1	43.92597778468153	13.125532087678312	200.25241275513733	0	0	0
258	1	1	44.71037024512227	13.648314498182154	200.5862196143711	0	0	0
259	1	1	45.49476270556301	13.620620483380135	201.20586589213596	0	0	0
260	1	1	46.279155166003754	14.143402893883977	201.53967275136972	0	0	0
261	1	1	47.063547626444496	14.115708879081957	202.1593190291346	0	0	0
262	1	1	47.84794008688524	14.638491289585799	202.49312588836835	0	0	0
263	1	1	48.63233254732598	14.61079727478378	203.11277216613323	0	0	0
264	1	1	49.41672500776672	15.133579685287621	203.446579025367	0	0	0
265	1	1	50.201117468207464	15.105885670485602	204.06622530313186	0	0	0
266	1	1	50.985509928648206	15.628668080989444	204.40003216236562	0	0	0
267	1	1	51.76990238908895	15.600974066187424	205.0196784401305	0	0	0
268	1	1	52.55429484952969	16.123756476691266	205.35348529936425	0	0	0
269	1	1	53.33868730997043	16.096062461889247	205.97313157712912	0	0	0
270	1	1	54.123079770411174	16.61884487239309	206.30693843636288	0	0	0
271	1	1	54.907472230851916	16.59115085759107	206.92658471412776	0	0	0
272	1	1	55.69186469129266	17.113933268094915	207.26039157336152	0	0	0
273	1	1	56.4762571517334	17.086239253292895	207.8800378511264	0	0	0
274	1	1	57.26064961217414	17.60902166379674	208.21384471036015	0	0	0
275	1	1	58.04504207261488	17.58132764899472	208.83349098812502	0	0	0
276	1	1	58.829434533055625	18.104110059498563	209.16729784735878	0	0	0
277	1	1	59.61382699349637	18.076416044696543	209.78694412512365	0	0	0
278	1	1	60.39821945393711	18.599198455200387	210.12075098435741	0	0	0
279	1	1	61.18261191437785	18.571504440398368	210.7403972621223	0	0	0
280	1	1	61.96700437481859	19.09428685090221	211.07420412135605	0	0	0
281	1	1	62.751396835259335	19.06659283610019	211.69385039912092	0	0	0
282	1	1	63.53578929570008	19.589375246604035	212.02765725835468	0	0	0
283	1	1	64.32018175614081	19.561681231802016	212.64730353611955	0	0	0
284	1	1	65.10457421658155	20.08446364230586	212.9811103953533	0	0	0
285	1	1	65.8889666770223	20.05676962750384	213.60075667311818	0	0	0
286	1	1	66.67335913746304	20.579552038007684	213.93456353235194	0	0	0
287	1	1	67.45775159790378	20.551858023205664	214.55420981011682	0	0	0
288	1	1	68.24214405834452	21.074640433709508	214.88801666935058	0	0	0
289	1	1	69.02653651878526	21.04694641890749	215.50766294711545	0	0	0
290	1	1	69.810928979226	21.569728829411332	215.8414698063492	0	0	0
291	1	1	70.59532143966675	21.542034814609313	216.46111608411408	0	0	0
292	1	1	71.37971390010749	22.064817225113156	216.79492294334784	0	0	0
293	1	1	72.16410636054823	22.037123210311137	217.4145692211127	0	0	0
294	1	1	72.94849882098897	22.55990562081498	217.74837608034647	0	0	0
295	1	1	73.73289128142972	22.53221160601296	218.36802235811135	0	0	0
296	1	1	74.51728374187046	23.054994016516805	218.7018292173451	0	0	0
297	1	1	75.3016762023112	23.027300001714785	219.32147549510998	0	0	0
298	1	1	76.08606866275194	23.55008241221863	219.65528235434374	0	0	0
299	1	1	76.87046112319268	23.52238839741661	220.2749286321086	0	0	0
300	1	1	77.65485358363343	24.045170807920453	220.60873549134237	0	0	0
301	1	1	78.43924604407417	24.017476793118433	221.22838176910724	0	0	0
302	1	1	79.22363850451491	24.540259203622277	221.562188628341	0	0	0
303	1	1	80.00803096495565	24.512565188820258	222.18183490610588	0	0	0
304	1	1	80.7924234253964	25.0353475993241	222.51564176533964	0	0	0
305	1	1	81.57681588583714	25.00765358452208	223.1352880431045	0	0	0
306	1	1	82.36120834627788	25.530435995025925	223.46909490233827	0	0	0
307	1	1	83.14560080671862	25.502741980223906	224.08874118010314	0	0	0
308	1	1	83.92999326715936	26.02552439072775	224.4225480393369	0	0	0
309	1	1	84.7143857276001	25.99783037592573	225.04219431710177	0	0	0
310	1	1	85.49877818804084	26.520612786429574	225.37600117633554	0	0	0
311	1	1	86.28317064848159	26.492918771627554	225.9956474541004	0	0	0
312	1	1	87.06756310892233	27.015701182131398	226.32945431333417	0	0	0
313	1	1	87.85195556936307	26.98800716732938	226.94910059109904	0	0	0
314	1	1	88.63634802980381	27.510789577833222	227.2829074503328	0	0	0
315	1	1	89.42074049024455	27.483095563031203	227.90255372809767	0	0	0
316	1	1	90.2051329506853	28.005877973535046	228.23636058733143	0	0	0
317	1	1	90.98952541112604	27.978183958733027	228.8560068650963	0	0	0
318	1	1	91.77391787156678	28.50096636923687	229.18981372433007	0	0	0
319	1	1	92.55831033200752	28.47327235443485	229.80946000209494	0	0	0
320	1	1	93.34270279244826	28.996054764938695	230.1432668613287	0	0	0
321	1	1	94.127095252889	28.968360750136675	230.76291313909357	0	0	0
322	1	1	94.91148771332975	29.49114316064052	231.09671999832733	0	0	0
323	1	1	95.69588017377049	29.4634491458385	231.7163662760922	0	0	0
324	1	1	96.48027263421123	29.986231556342343	232.05017313532596	0	0	0
325	1	1	97.26466509465197	29.958537541540323	232.66981941309083	0	0	0
326	1	1	98.04905755509272	30.481319952044167	233.0036262723246	0	0	0
327	1	1	98.83345001553346	30.453625937242148	233.62327255008947	0	0	0
328	1	1	99.6178424759742	30.97640834774599	233.95707940932323	0	0	0
329	1	1	100.40223493641494	30.948714332943972	234.5767256870881	0	0	0
330	1	1	101.18662739685568	31.471496743447815	234.91053254632186	0	0	0
331	1	1	101.97101985729643	31.443802728645796	235.53017882408673	0	0	0
332	1	1	102.75541231773717	31.96658513914964	235.8639856833205	0	0	0
333	1	1	103.53980477817791	31.93889112434762	236.48363196108536	0	0	0
334	1	1	104.32419723861865	32.461673534851464	236.81743882031913	0	0	0
335	1	1	105.1085896990594	32.43397952004945	237.437085098084	0	0	0
336	1	1	105.89298215950014	32.95676193055329	237.77089195731776	0	0	0
337	1	1	106.67737461994088	32.929067915751276	238.39053823508263	0	0	0
338	1	1	107.46176708038162	33.45185032625512	238.7243450943164	0	0	0
339	1	1	108.24615954082236	33.4241563114531	239.34399137208126	0	0	0
340	1	1	109.0305520012631	33.94693872195695	239.67779823131502	0	0	0
341	1	1	109.81494446170385	33.91924470715493	240.2974445090799	0	0	0
342	1	1	110.59933692214459	34.442027117658775	240.63125136831366	0	0	0
343	1	1	111.38372938258533	34.41433310285676	241.25089764607853	0	0	0
344	1	1	112.16812184302607	34.9371155133606	241.5847045053123	0	0	0
345	1	1	112.95251430346681	34.90942149855859	242.20435078307716	0	0	0
346	1	1	113.73690676390756	35.43220390906243	242.53815764231092	0	0	0
347	1	1	114.5212992243483	35.404509894260414	243.1578039200758	0	0	0
348	1	1	115.30569168478904	35.92729230476426	243.49161077930955	0	0	0
349	1	1	116.09008414522978	35.89959828996224	244.11125705707443	0	0	0
350	1	1	116.87447660567052	36.422380700466086	244.4450639163082	0	0	0
351	1	1	117.65886906611127	36.39468668566407	245.06471019407306	0	0	0
352	1	1	118.443261526552	36.91746909616791	245.39851705330682	0	0	0
353	1	1	119.22765398699275	36.8897750813659	246.0181633310717	0	0	0
354	1	1	120.01204644743349	37.41255749186974	246.35197019030545	0	0	0
355	1	1	120.79643890787423	37.384863477067725	246.97161646807032	0	0	0
356	1	1	121.58083136831497	37.90764588757157	247.30542332730408	0	0	0
357	1	1	122.36522382875572	37.87995187276955	247.92506960506896	0	0	0
358	1	1	123.14961628919646	38.402734283273396	248.25887646430272	0	0	0
359	1	1	123.9340087496372	38.37504026847138	248.8785227420676	0	0	0
360	1	1	124.71840121007794	38.897822678975224	249.21232960130135	0	0	0
361	1	1	125.50279367051868	38.87012866417321	249.83197587906622	0	0	0
362	1	1	126.28718613095943	39.39291107467705	250.16578273829998	0	0	0
363	1	1	127.07157859140017	39.365217059875036	250.78542901606485	0	0	0
364	1	1	127.85597105184091	39.88799947037888	251.1192358752986	0	0	0
365	1	1	128.64036351228165	39.860305455576864	251.73888215306349	0	0	0
366	1	1	129.42475597272238	40.38308786608071	252.07268901229725	0	0	0
367	1	1	130.2091484331631	40.35539385127869	252.69233529006212	0	0	0
368	1	1	130.99354089360384	40.878176261782535	253.02614214929588	0	0	0
369	1	1	131.77793335404456	40.85048224698052	253.64578842706075	0	0	0
370	1	1	132.5623258144853	41.37326465748436	253.9795952862945	0	0	0
371	1	1	133.34671827492602	41.34557064268235	254.59924156405938	0	0	0
372	1	1	134.13111073536675	41.86835305318619	254.93304842329314	0	0	0
373	1	1	134.91550319580747	41.840659038384175	255.55269470105802	0	0	0
374	1	1	135.6998956562482	42.36344144888802	255.88650156029178	0	0	0
375	1	1	136.48428811668893	42.335747434086	256.5061478380567	0	0	0
376	1	1	137.26868057712966	42.858529844589846	256.83995469729047	0	0	0
377	1	1	138.05307303757039	42.83083582978783	257.45960097505537	0	0	0
378	1	1	138.8374654980111	43.353618240291674	257.79340783428916	0	0	0
379	1	1	139.62185795845184	43.32592422548966	258.41305411205406	0	0	0
380	1	1	140.40625041889257	43.8487066359935	258.74686097128784	0	0	0
381	1	1	141.1906428793333	43.821012621191485	259.36650724905275	0	0	0
382	1	1	141.97503533977402	44.34379503169533	259.70031410828653	0	0	0
383	1	1	142.75942780021475	44.31610101689331	260.31996038605143	0	0	0
384	1	1	143.54382026065548	44.83888342739716	260.6537672452852	0	0	0
385	1	1	144.3282127210962	44.81118941259514	261.2734135230501	0	0	0
386	1	1	145.11260518153694	45.333971823098985	261.6072203822839	0	0	0
387	1	1	145.89699764197766	45.30627780829697	262.2268666600488	0	0	0
388	1	1	146.6813901024184	45.82906021880081	262.5606735192826	0	0	0
389	1	1	147.46578256285912	45.801366203998796	263.1803197970475	0	0	0
390	1	1	148.25017502329985	46.32414861450264	263.5141266562813	0	0	0
391	1	1	149.03456748374057	46.296454599700624	264.1337729340462	0	0	0
392	1	1	149.8189599441813	46.81923701020447	264.46757979328	0	0	0
393	1	1	150.60335240462203	46.79154299540245	265.0872260710449	0	0	0
394	1	1	151.38774486506276	47.314325405906295	265.42103293027867	0	0	0
395	1	1	152.17213732550348	47.28663139110428	266.04067920804357	0	0	0
396	1	1	152.9565297859442	47.80941380160812	266.37448606727736	0	0	0
397	1	1	153.74092224638494	47.78171978680611	266.99413234504226	0	0	0
398	1	1	154.52531470682567	48.30450219730995	267.32793920427605	0	0	0
399	1	1	155.3097071672664	48.276808182507935	267.94758548204095	0	0	0
400	1	1	156.09409962770712	48.79959059301178	268.28139234127474	0	0	0
401	1	1	156.87849208814785	48.77189657820976	268.90103861903964	0	0	0
402	1	1	0.06054661792760481	-1.4815691990214463	173.15779307189214	0	0	0
403	1	1	0.12109323585520913	-2.2410019203406835	172.51003073210447	0	0	0
404	1	1	0.18163985378281344	-3.1816969228712653	172.84383759133826	0	0	0
405	1	1	0.24218647171041777	-3.941129644190502	172.19607525155058	0	0	0
406	1	1	0.3027330896380221	-4.881824646721084	172.52988211078437	0	0	0
407	1	1	0.36327970756562644	-5.64125736804032	171.8821197709967	0	0	0
408	1	1	0.42382632549323074	-6.581952370570902	172.21592663023048	0	0	0
409	1	1	0.48437294342083503	-7.341385091890139	171.5681642904428	0	0	0
410	1	1	0.5449195613484393	-8.28208009442072	171.9019711496766	0	0	0
411	1	1	0.6054661792760436	-9.041512815739958	171.25420880988892	0	0	0
412	1	1	0.6660127972036479	-9.98220781827054	171.5880156691227	0	0	0
413	1	1	0.7265594151312522	-10.741640539589778	170.94025332933504	0	0	0
414	1	1	0.7871060330588565	-11.68233554212036	171.27406018856882	0	0	0
415	1	1	0.8476526509864608	-12.441768263439597	170.62629784878115	0	0	0
416	1	1	0.9081992689140651	-13.382463265970179	170.96010470801494	0	0	0
417	1	1	0.9687458868416694	-14.141895987289416	170.31234236822726	0	0	0
418	1	1	1.0292925047692738	-15.082590989819998	170.64614922746105	0	0	0
419	1	1	1.0898391226968782	-15.842023711139236	169.99838688767338	0	0	0
420	1	1	1.1503857406244826	-16.782718713669816	170.33219374690717	0	0	0
421	1	1	1.210932358552087	-17.54215143498905	169.6844314071195	0	0	0
422	1	1	1.2714789764796914	-18.482846437519633	170.01823826635328	0	0	0
423	1	1	1.3320255944072958	-19.24227915883887	169.3704759265656	0	0	0
424	1	1	1.3925722123349003	-20.18297416136945	169.7042827857994	0	0	0
425	1	1	1.4531188302625047	-20.942406882688687	169.05652044601172	0	0	0
426	1	1	1.513665448190109	-21.88310188521927	169.3903273052455	0	0	0
427	1	1	1.5742120661177135	-22.642534606538504	168.74256496545783	0	0	0
428	1	1	1.6347586840453179	-23.583229609069086	169.07637182469162	0	0	0
429	1	1	1.6953053019729223	-24.342662330388322	168.42860948490394	0	0	0
430	1	1	1.7558519199005267	-25.283357332918904	168.76241634413773	0	0	0
431	1	1	1.816398537828131	-26.04279005423814	168.11465400435006	0	0	0
432	1	1	1.8769451557557355	-26.98348505676872	168.44846086358385	0	0	0
433	1	1	1.93749177368334	-27.742917778087957	167.80069852379617	0	0	0
434	1	1	1.9980383916109443	-28.68361278061854	168.13450538302996	0	0	0
435	1	1	2.0585850095385485	-29.443045501937775	167.48674304324229	0	0	0
436	1	1	2.1191316274661527	-30.383740504468356	167.82054990247607	0	0	0
437	1	1	2.179678245393757	-31.143173225787592	167.1727875626884	0	0	0
438	1	1	2.240224863321361	-32.083868228318174	167.5065944219222	0	0	0
439	1	1	2.3007714812489652	-32.84330094963741	166.8588320821345	0	0	0
440	1	1	2.3613180991765694	-33.78399595216799	167.1926389413683	0	0	0
441	1	1	2.4218647171041736	-34.54342867348723	166.54487660158063	0	0	0
442	1	1	2.482411335031778	-35.48412367601781	166.87868346081441	0	0	0
443	1	1	2.542957952959382	-36.243556397337045	166.23092112102674	0	0	0
444	1	1	2.603504570886986	-37.18425139986763	166.56472798026053	0	0	0
445	1	1	2.6640511888145904	-37.94368412118686	165.91696564047285	0	0	0
446	1	1	2.7245978067421945	-38.884379123717444	166.25077249970664	0	0	0
447	1	1	2.7851444246697987	-39.64381184503668	165.60301015991897	0	0	0
448	1	1	2.845691042597403	-40.58450684756726	165.93681701915276	0	0	0
449	1	1	2.906237660525007	-41.3439395688865	165.28905467936508	0	0	0
450	1	1	2.9667842784526113	-42.28463457141708	165.62286153859887	0	0	0
451	1	1	3.0273308963802155	-43.044067292736315	164.9750991988112	0	0	0
452	1	1	3.0878775143078196	-43.9847622952669	165.30890605804498	0	0	0
453	1	1	3.148424132235424	-44.74419501658613	164.6611437182573	0	0	0
454	1	1	3.208970750163028	-45.684890019116715	164.9949505774911	0	0	0
455	1	1	3.269517368090632	-46.44432274043595	164.34718823770342	0	0	0
456	1	1	3.3300639860182364	-47.38501774296653	164.6809950969372	0	0	0
457	1	1	3.3906106039458406	-48.14445046428577	164.03323275714953	0	0	0
458	1	1	3.4511572218734448	-49.08514546681635	164.36703961638332	0	0	0
459	1	1	3.511703839801049	-49.844578188135586	163.71927727659565	0	0	0
460	1	1	3.572250457728653	-50.78527319066617	164.05308413582944	0	0	0
461	1	1	3.6327970756562573	-51.5447059119854	163.40532179604176	0	0	0
462	1	1	3.6933436935838615	-52.485400914515985	163.73912865527555	0	0	0
463	1	1	3.7538903115114657	-53.24483363583522	163.09136631548787	0	0	0
464	1	1	3.81443692943907	-54.1855286383658	163.42517317472166	0	0	0
465	1	1	3.874983547366674	-54.94496135968504	162.777410834934	0	0	0
466	1	1	3.9355301652942782	-55.88565636221562	163.11121769416778	0	0	0
467	1	1	3.9960767832218824	-56.645089083534856	162.4634553543801	0	0	0
468	1	1	4.056623401149487	-57.58578408606544	162.7972622136139	0	0	0
469	1	1	4.117170019077092	-58.34521680738467	162.14949987382622	0	0	0
470	1	1	4.177716637004696	-59.285911809915255	162.48330673306	0	0	0
471	1	1	4.238263254932301	-60.04534453123449	161.83554439327233	0	0	0
472	1	1	4.298809872859906	-60.98603953376507	162.16935125250612	0	0	0
473	1	1	4.35935649078751	-61.74547225508431	161.52158891271844	0	0	0
474	1	1	4.419903108715115	-62.68616725761489	161.85539577195223	0	0	0
475	1	1	4.4804497266427195	-63.445599978934126	161.20763343216456	0	0	0
476	1	1	4.540996344570324	-64.3862949814647	161.54144029139835	0	0	0
477	1	1	4.601542962497929	-65.14572770278394	160.89367795161067	0	0	0
478	1	1	4.662089580425533	-66.08642270531452	161.22748481084446	0	0	0
479	1	1	4.722636198353138	-66.84585542663376	160.57972247105678	0	0	0
480	1	1	4.783182816280743	-67.78655042916434	160.91352933029057	0	0	0
481	1	1	4.843729434208347	-68.54598315048358	160.2657669905029	0	0	0
482	1	1	4.904276052135952	-69.48667815301415	160.5995738497367	0	0	0
483	1	1	4.9648226700635565	-70.2461108743334	159.951811509949	0	0	0
484	1	1	5.025369287991161	-71.18680587686397	160.2856183691828	0	0	0
485	1	1	5.085915905918766	-71.94623859818321	159.63785602939512	0	0	0
486	1	1	5.14646252384637	-72.88693360071379	159.9716628886289	0	0	0
487	1	1	5.207009141773975	-73.64636632203303	159.32390054884124	0	0	0
488	1	1	5.26755575970158	-74.5870613245636	159.65770740807503	0	0	0
489	1	1	5.328102377629184	-75.34649404588285	159.00994506828735	0	0	0