bb451nuc1bl225bn4d30tot900V2

901 atoms
900 bonds
902 angles

1 atom types
1 bond types
1 angle types

-1000 1000 xlo xhi
-1000 1000 ylo yhi
-1000 1000 zlo zhi

Masses

1 1

Atoms

1	1	1	0.0	0.0	0.0	0	0	0
2	1	1	0.0	0.0	1.0	0	0	0
3	1	1	0.0	-0.49999999999999994	1.8660254037844388	0	0	0
4	1	1	0.0	0.0	2.7320508075688776	0	0	0
5	1	1	0.0	-0.49999999999999994	3.5980762113533165	0	0	0
6	1	1	0.0	0.0	4.464101615137755	0	0	0
7	1	1	0.0	-0.49999999999999994	5.330127018922194	0	0	0
8	1	1	0.0	0.0	6.196152422706632	0	0	0
9	1	1	0.0	-0.49999999999999994	7.06217782649107	0	0	0
10	1	1	0.0	0.0	7.928203230275509	0	0	0
11	1	1	0.0	-0.49999999999999994	8.794228634059948	0	0	0
12	1	1	0.0	0.0	9.660254037844387	0	0	0
13	1	1	0.0	-0.49999999999999994	10.526279441628827	0	0	0
14	1	1	0.0	0.0	11.392304845413266	0	0	0
15	1	1	0.0	-0.49999999999999994	12.258330249197705	0	0	0
16	1	1	0.0	0.0	13.124355652982144	0	0	0
17	1	1	0.0	-0.49999999999999994	13.990381056766584	0	0	0
18	1	1	0.0	0.0	14.856406460551023	0	0	0
19	1	1	0.0	-0.49999999999999994	15.722431864335462	0	0	0
20	1	1	0.0	0.0	16.5884572681199	0	0	0
21	1	1	0.0	-0.49999999999999994	17.454482671904337	0	0	0
22	1	1	0.0	0.0	18.320508075688775	0	0	0
23	1	1	0.0	-0.49999999999999994	19.186533479473212	0	0	0
24	1	1	0.0	0.0	20.05255888325765	0	0	0
25	1	1	0.0	-0.49999999999999994	20.918584287042087	0	0	0
26	1	1	0.0	0.0	21.784609690826525	0	0	0
27	1	1	0.0	-0.49999999999999994	22.650635094610962	0	0	0
28	1	1	0.0	0.0	23.5166604983954	0	0	0
29	1	1	0.0	-0.49999999999999994	24.382685902179837	0	0	0
30	1	1	0.0	0.0	25.248711305964274	0	0	0
31	1	1	0.0	-0.49999999999999994	26.114736709748712	0	0	0
32	1	1	0.0	0.0	26.98076211353315	0	0	0
33	1	1	0.0	-0.49999999999999994	27.846787517317587	0	0	0
34	1	1	0.0	0.0	28.712812921102024	0	0	0
35	1	1	0.0	-0.49999999999999994	29.578838324886462	0	0	0
36	1	1	0.0	0.0	30.4448637286709	0	0	0
37	1	1	0.0	-0.49999999999999994	31.310889132455337	0	0	0
38	1	1	0.0	0.0	32.17691453623978	0	0	0
39	1	1	0.0	-0.49999999999999994	33.04293994002422	0	0	0
40	1	1	0.0	0.0	33.90896534380866	0	0	0
41	1	1	0.0	-0.49999999999999994	34.7749907475931	0	0	0
42	1	1	0.0	0.0	35.64101615137754	0	0	0
43	1	1	0.0	-0.49999999999999994	36.50704155516198	0	0	0
44	1	1	0.0	0.0	37.373066958946424	0	0	0
45	1	1	0.0	-0.49999999999999994	38.239092362730865	0	0	0
46	1	1	0.0	0.0	39.105117766515306	0	0	0
47	1	1	0.0	-0.49999999999999994	39.97114317029975	0	0	0
48	1	1	0.0	0.0	40.83716857408419	0	0	0
49	1	1	0.0	-0.49999999999999994	41.70319397786863	0	0	0
50	1	1	0.0	0.0	42.56921938165307	0	0	0
51	1	1	0.0	-0.49999999999999994	43.43524478543751	0	0	0
52	1	1	0.0	0.0	44.30127018922195	0	0	0
53	1	1	0.0	-0.49999999999999994	45.16729559300639	0	0	0
54	1	1	0.0	0.0	46.033320996790835	0	0	0
55	1	1	0.0	-0.49999999999999994	46.899346400575276	0	0	0
56	1	1	0.0	0.0	47.76537180435972	0	0	0
57	1	1	0.0	-0.49999999999999994	48.63139720814416	0	0	0
58	1	1	0.0	0.0	49.4974226119286	0	0	0
59	1	1	0.0	-0.49999999999999994	50.36344801571304	0	0	0
60	1	1	0.0	0.0	51.22947341949748	0	0	0
61	1	1	0.0	-0.49999999999999994	52.09549882328192	0	0	0
62	1	1	0.0	0.0	52.96152422706636	0	0	0
63	1	1	0.0	-0.49999999999999994	53.827549630850804	0	0	0
64	1	1	0.0	0.0	54.693575034635245	0	0	0
65	1	1	0.0	-0.49999999999999994	55.559600438419686	0	0	0
66	1	1	0.0	0.0	56.42562584220413	0	0	0
67	1	1	0.0	-0.49999999999999994	57.29165124598857	0	0	0
68	1	1	0.0	0.0	58.15767664977301	0	0	0
69	1	1	0.0	-0.49999999999999994	59.02370205355745	0	0	0
70	1	1	0.0	0.0	59.88972745734189	0	0	0
71	1	1	0.0	-0.49999999999999994	60.75575286112633	0	0	0
72	1	1	0.0	0.0	61.62177826491077	0	0	0
73	1	1	0.0	-0.49999999999999994	62.487803668695214	0	0	0
74	1	1	0.0	0.0	63.353829072479655	0	0	0
75	1	1	0.0	-0.49999999999999994	64.21985447626409	0	0	0
76	1	1	0.0	0.0	65.08587988004852	0	0	0
77	1	1	0.0	-0.49999999999999994	65.95190528383296	0	0	0
78	1	1	0.0	0.0	66.81793068761739	0	0	0
79	1	1	0.0	-0.49999999999999994	67.68395609140183	0	0	0
80	1	1	0.0	0.0	68.54998149518626	0	0	0
81	1	1	0.0	-0.49999999999999994	69.41600689897069	0	0	0
82	1	1	0.0	0.0	70.28203230275513	0	0	0
83	1	1	0.0	-0.49999999999999994	71.14805770653956	0	0	0
84	1	1	0.0	0.0	72.014083110324	0	0	0
85	1	1	0.0	-0.49999999999999994	72.88010851410843	0	0	0
86	1	1	0.0	0.0	73.74613391789286	0	0	0
87	1	1	0.0	-0.49999999999999994	74.6121593216773	0	0	0
88	1	1	0.0	0.0	75.47818472546173	0	0	0
89	1	1	0.0	-0.49999999999999994	76.34421012924616	0	0	0
90	1	1	0.0	0.0	77.2102355330306	0	0	0
91	1	1	0.0	-0.49999999999999994	78.07626093681503	0	0	0
92	1	1	0.0	0.0	78.94228634059947	0	0	0
93	1	1	0.0	-0.49999999999999994	79.8083117443839	0	0	0
94	1	1	0.0	0.0	80.67433714816833	0	0	0
95	1	1	0.0	-0.49999999999999994	81.54036255195277	0	0	0
96	1	1	0.0	0.0	82.4063879557372	0	0	0
97	1	1	0.0	-0.49999999999999994	83.27241335952164	0	0	0
98	1	1	0.0	0.0	84.13843876330607	0	0	0
99	1	1	0.0	-0.49999999999999994	85.0044641670905	0	0	0
100	1	1	0.0	0.0	85.87048957087494	0	0	0
101	1	1	0.0	-0.49999999999999994	86.73651497465937	0	0	0
102	1	1	0.0	0.0	87.6025403784438	0	0	0
103	1	1	0.0	-0.49999999999999994	88.46856578222824	0	0	0
104	1	1	0.0	0.0	89.33459118601267	0	0	0
105	1	1	0.0	-0.49999999999999994	90.20061658979711	0	0	0
106	1	1	0.0	0.0	91.06664199358154	0	0	0
107	1	1	0.0	-0.49999999999999994	91.93266739736598	0	0	0
108	1	1	0.0	0.0	92.79869280115041	0	0	0
109	1	1	0.0	-0.49999999999999994	93.66471820493484	0	0	0
110	1	1	0.0	0.0	94.53074360871928	0	0	0
111	1	1	0.0	-0.49999999999999994	95.39676901250371	0	0	0
112	1	1	0.0	0.0	96.26279441628814	0	0	0
113	1	1	0.0	-0.49999999999999994	97.12881982007258	0	0	0
114	1	1	0.0	0.0	97.99484522385701	0	0	0
115	1	1	0.0	-0.49999999999999994	98.86087062764145	0	0	0
116	1	1	0.0	0.0	99.72689603142588	0	0	0
117	1	1	0.0	-0.49999999999999994	100.59292143521031	0	0	0
118	1	1	0.0	0.0	101.45894683899475	0	0	0
119	1	1	0.0	-0.49999999999999994	102.32497224277918	0	0	0
120	1	1	0.0	0.0	103.19099764656362	0	0	0
121	1	1	0.0	-0.49999999999999994	104.05702305034805	0	0	0
122	1	1	0.0	0.0	104.92304845413248	0	0	0
123	1	1	0.0	-0.49999999999999994	105.78907385791692	0	0	0
124	1	1	0.0	0.0	106.65509926170135	0	0	0
125	1	1	0.0	-0.49999999999999994	107.52112466548579	0	0	0
126	1	1	0.0	0.0	108.38715006927022	0	0	0
127	1	1	0.0	-0.49999999999999994	109.25317547305465	0	0	0
128	1	1	0.0	0.0	110.11920087683909	0	0	0
129	1	1	0.0	-0.49999999999999994	110.98522628062352	0	0	0
130	1	1	0.0	0.0	111.85125168440796	0	0	0
131	1	1	0.0	-0.49999999999999994	112.71727708819239	0	0	0
132	1	1	0.0	0.0	113.58330249197682	0	0	0
133	1	1	0.0	-0.49999999999999994	114.44932789576126	0	0	0
134	1	1	0.0	0.0	115.31535329954569	0	0	0
135	1	1	0.0	-0.49999999999999994	116.18137870333013	0	0	0
136	1	1	0.0	0.0	117.04740410711456	0	0	0
137	1	1	0.0	-0.49999999999999994	117.913429510899	0	0	0
138	1	1	0.0	0.0	118.77945491468343	0	0	0
139	1	1	0.0	-0.49999999999999994	119.64548031846786	0	0	0
140	1	1	0.0	0.0	120.5115057222523	0	0	0
141	1	1	0.0	-0.49999999999999994	121.37753112603673	0	0	0
142	1	1	0.0	0.0	122.24355652982116	0	0	0
143	1	1	0.0	-0.49999999999999994	123.1095819336056	0	0	0
144	1	1	0.0	0.0	123.97560733739003	0	0	0
145	1	1	0.0	-0.49999999999999994	124.84163274117446	0	0	0
146	1	1	0.0	0.0	125.7076581449589	0	0	0
147	1	1	0.0	-0.49999999999999994	126.57368354874333	0	0	0
148	1	1	0.0	0.0	127.43970895252777	0	0	0
149	1	1	0.0	-0.49999999999999994	128.3057343563122	0	0	0
150	1	1	0.0	0.0	129.17175976009665	0	0	0
151	1	1	0.0	-0.49999999999999994	130.0377851638811	0	0	0
152	1	1	0.0	0.0	130.90381056766554	0	0	0
153	1	1	0.0	-0.49999999999999994	131.76983597145	0	0	0
154	1	1	0.0	0.0	132.63586137523444	0	0	0
155	1	1	0.0	-0.49999999999999994	133.5018867790189	0	0	0
156	1	1	0.0	0.0	134.36791218280334	0	0	0
157	1	1	0.0	-0.49999999999999994	135.23393758658779	0	0	0
158	1	1	0.0	0.0	136.09996299037223	0	0	0
159	1	1	0.0	-0.49999999999999994	136.96598839415668	0	0	0
160	1	1	0.0	0.0	137.83201379794113	0	0	0
161	1	1	0.0	-0.49999999999999994	138.69803920172558	0	0	0
162	1	1	0.0	0.0	139.56406460551003	0	0	0
163	1	1	0.0	-0.49999999999999994	140.43009000929447	0	0	0
164	1	1	0.0	0.0	141.29611541307892	0	0	0
165	1	1	0.0	-0.49999999999999994	142.16214081686337	0	0	0
166	1	1	0.0	0.0	143.02816622064782	0	0	0
167	1	1	0.0	-0.49999999999999994	143.89419162443227	0	0	0
168	1	1	0.0	0.0	144.76021702821672	0	0	0
169	1	1	0.0	-0.49999999999999994	145.62624243200116	0	0	0
170	1	1	0.0	0.0	146.4922678357856	0	0	0
171	1	1	0.0	-0.49999999999999994	147.35829323957006	0	0	0
172	1	1	0.0	0.0	148.2243186433545	0	0	0
173	1	1	0.0	-0.49999999999999994	149.09034404713896	0	0	0
174	1	1	0.0	0.0	149.9563694509234	0	0	0
175	1	1	0.0	-0.49999999999999994	150.82239485470785	0	0	0
176	1	1	0.0	0.0	151.6884202584923	0	0	0
177	1	1	0.0	-0.49999999999999994	152.55444566227675	0	0	0
178	1	1	0.0	0.0	153.4204710660612	0	0	0
179	1	1	0.0	-0.49999999999999994	154.28649646984564	0	0	0
180	1	1	0.0	0.0	155.1525218736301	0	0	0
181	1	1	0.0	-0.49999999999999994	156.01854727741454	0	0	0
182	1	1	0.0	0.0	156.884572681199	0	0	0
183	1	1	0.0	-0.49999999999999994	157.75059808498344	0	0	0
184	1	1	0.0	0.0	158.61662348876789	0	0	0
185	1	1	0.0	-0.49999999999999994	159.48264889255233	0	0	0
186	1	1	0.0	0.0	160.34867429633678	0	0	0
187	1	1	0.0	-0.49999999999999994	161.21469970012123	0	0	0
188	1	1	0.0	0.0	162.08072510390568	0	0	0
189	1	1	0.0	-0.49999999999999994	162.94675050769013	0	0	0
190	1	1	0.0	0.0	163.81277591147457	0	0	0
191	1	1	0.0	-0.49999999999999994	164.67880131525902	0	0	0
192	1	1	0.0	0.0	165.54482671904347	0	0	0
193	1	1	0.0	-0.49999999999999994	166.41085212282792	0	0	0
194	1	1	0.0	0.0	167.27687752661237	0	0	0
195	1	1	0.0	-0.49999999999999994	168.14290293039682	0	0	0
196	1	1	0.0	0.0	169.00892833418126	0	0	0
197	1	1	0.0	-0.49999999999999994	169.8749537379657	0	0	0
198	1	1	0.0	0.0	170.74097914175016	0	0	0
199	1	1	0.0	-0.49999999999999994	171.6070045455346	0	0	0
200	1	1	0.0	0.0	172.47302994931906	0	0	0
201	1	1	0.0	-0.49999999999999994	173.3390553531035	0	0	0
202	1	1	0.0	0.0	174.20508075688795	0	0	0
203	1	1	0.0	-0.49999999999999994	175.0711061606724	0	0	0
204	1	1	0.0	0.0	175.93713156445685	0	0	0
205	1	1	0.0	-0.49999999999999994	176.8031569682413	0	0	0
206	1	1	0.0	0.0	177.66918237202574	0	0	0
207	1	1	0.0	-0.49999999999999994	178.5352077758102	0	0	0
208	1	1	0.0	0.0	179.40123317959464	0	0	0
209	1	1	0.0	-0.49999999999999994	180.2672585833791	0	0	0
210	1	1	0.0	0.0	181.13328398716354	0	0	0
211	1	1	0.0	-0.49999999999999994	181.99930939094799	0	0	0
212	1	1	0.0	0.0	182.86533479473243	0	0	0
213	1	1	0.0	-0.49999999999999994	183.73136019851688	0	0	0
214	1	1	0.0	0.0	184.59738560230133	0	0	0
215	1	1	0.0	-0.49999999999999994	185.46341100608578	0	0	0
216	1	1	0.0	0.0	186.32943640987023	0	0	0
217	1	1	0.0	-0.49999999999999994	187.19546181365467	0	0	0
218	1	1	0.0	0.0	188.06148721743912	0	0	0
219	1	1	0.0	-0.49999999999999994	188.92751262122357	0	0	0
220	1	1	0.0	0.0	189.79353802500802	0	0	0
221	1	1	0.0	-0.49999999999999994	190.65956342879247	0	0	0
222	1	1	0.0	0.0	191.52558883257691	0	0	0
223	1	1	0.0	-0.49999999999999994	192.39161423636136	0	0	0
224	1	1	0.0	0.0	193.2576396401458	0	0	0
225	1	1	0.0	-0.49999999999999994	194.12366504393026	0	0	0
226	1	1	0.0	0.0	194.9896904477147	0	0	0
227	1	1	0.6021456435774644	-0.46118510195082946	195.6414027505442	0	0	0
228	1	1	1.2042912871549238	-1.1864392675018969	195.97520960977795	0	0	0
229	1	1	1.8064369307323833	-1.259981130223492	196.77020157096254	0	0	0
230	1	1	2.408582574309843	-1.9852352957745594	197.1040084301963	0	0	0
231	1	1	3.0107282178873023	-2.0587771584961545	197.8990003913809	0	0	0
232	1	1	3.6128738614647617	-2.784031324047222	198.23280725061466	0	0	0
233	1	1	4.215019505042221	-2.857573186768817	199.02779921179925	0	0	0
234	1	1	4.81716514861968	-3.582827352319885	199.361606071033	0	0	0
235	1	1	5.419310792197139	-3.65636921504148	200.1565980322176	0	0	0
236	1	1	6.021456435774598	-4.381623380592547	200.49040489145136	0	0	0
237	1	1	6.623602079352057	-4.455165243314142	201.28539685263596	0	0	0
238	1	1	7.225747722929516	-5.18041940886521	201.61920371186972	0	0	0
239	1	1	7.827893366506975	-5.253961271586805	202.4141956730543	0	0	0
240	1	1	8.430039010084435	-5.9792154371378725	202.74800253228807	0	0	0
241	1	1	9.032184653661895	-6.052757299859468	203.54299449347266	0	0	0
242	1	1	9.634330297239355	-6.778011465410535	203.87680135270642	0	0	0
243	1	1	10.236475940816815	-6.85155332813213	204.67179331389102	0	0	0
244	1	1	10.838621584394275	-7.576807493683198	205.00560017312478	0	0	0
245	1	1	11.440767227971735	-7.650349356404793	205.80059213430937	0	0	0
246	1	1	12.042912871549195	-8.37560352195586	206.13439899354313	0	0	0
247	1	1	12.645058515126655	-8.449145384677456	206.92939095472772	0	0	0
248	1	1	13.247204158704115	-9.174399550228523	207.26319781396148	0	0	0
249	1	1	13.849349802281575	-9.24794141295012	208.05818977514608	0	0	0
250	1	1	14.451495445859035	-9.973195578501187	208.39199663437984	0	0	0
251	1	1	15.053641089436494	-10.046737441222783	209.18698859556443	0	0	0
252	1	1	15.655786733013954	-10.77199160677385	209.5207954547982	0	0	0
253	1	1	16.257932376591413	-10.845533469495447	210.31578741598278	0	0	0
254	1	1	16.86007802016887	-11.570787635046514	210.64959427521654	0	0	0
255	1	1	17.46222366374633	-11.64432949776811	211.44458623640114	0	0	0
256	1	1	18.064369307323787	-12.369583663319178	211.7783930956349	0	0	0
257	1	1	18.666514950901245	-12.443125526040774	212.5733850568195	0	0	0
258	1	1	19.268660594478703	-13.168379691591841	212.90719191605325	0	0	0
259	1	1	19.87080623805616	-13.241921554313437	213.70218387723784	0	0	0
260	1	1	20.47295188163362	-13.967175719864505	214.0359907364716	0	0	0
261	1	1	21.075097525211078	-14.040717582586101	214.8309826976562	0	0	0
262	1	1	21.677243168788536	-14.765971748137169	215.16478955688996	0	0	0
263	1	1	22.279388812365994	-14.839513610858765	215.95978151807455	0	0	0
264	1	1	22.881534455943452	-15.564767776409832	216.2935883773083	0	0	0
265	1	1	23.48368009952091	-15.638309639131428	217.0885803384929	0	0	0
266	1	1	24.08582574309837	-16.363563804682496	217.42238719772666	0	0	0
267	1	1	24.687971386675827	-16.43710566740409	218.21737915891126	0	0	0
268	1	1	25.290117030253285	-17.162359832955158	218.55118601814502	0	0	0
269	1	1	25.892262673830743	-17.235901695676752	219.3461779793296	0	0	0
270	1	1	26.4944083174082	-17.96115586122782	219.67998483856337	0	0	0
271	1	1	27.09655396098566	-18.034697723949414	220.47497679974796	0	0	0
272	1	1	27.698699604563117	-18.75995188950048	220.80878365898172	0	0	0
273	1	1	28.300845248140575	-18.833493752222076	221.60377562016632	0	0	0
274	1	1	28.902990891718034	-19.558747917773143	221.93758247940008	0	0	0
275	1	1	29.50513653529549	-19.632289780494737	222.73257444058467	0	0	0
276	1	1	30.10728217887295	-20.357543946045805	223.06638129981843	0	0	0
277	1	1	30.709427822450408	-20.4310858087674	223.86137326100302	0	0	0
278	1	1	31.311573466027866	-21.156339974318467	224.19518012023678	0	0	0
279	1	1	31.913719109605324	-21.22988183704006	224.99017208142138	0	0	0
280	1	1	32.51586475318278	-21.95513600259113	225.32397894065514	0	0	0
281	1	1	33.11801039676024	-22.028677865312723	226.11897090183973	0	0	0
282	1	1	33.7201560403377	-22.75393203086379	226.4527777610735	0	0	0
283	1	1	34.32230168391516	-22.827473893585385	227.24776972225808	0	0	0
284	1	1	34.924447327492615	-23.552728059136452	227.58157658149184	0	0	0
285	1	1	35.52659297107007	-23.626269921858047	228.37656854267644	0	0	0
286	1	1	36.12873861464753	-24.351524087409114	228.7103754019102	0	0	0
287	1	1	36.73088425822499	-24.42506595013071	229.5053673630948	0	0	0
288	1	1	37.33302990180245	-25.150320115681776	229.83917422232855	0	0	0
289	1	1	37.935175545379906	-25.22386197840337	230.63416618351314	0	0	0
290	1	1	38.537321188957364	-25.949116143954438	230.9679730427469	0	0	0
291	1	1	39.13946683253482	-26.022658006676032	231.7629650039315	0	0	0
292	1	1	39.74161247611228	-26.7479121722271	232.09677186316526	0	0	0
293	1	1	40.34375811968974	-26.821454034948694	232.89176382434985	0	0	0
294	1	1	40.9459037632672	-27.54670820049976	233.2255706835836	0	0	0
295	1	1	41.548049406844655	-27.620250063221356	234.0205626447682	0	0	0
296	1	1	42.15019505042211	-28.345504228772423	234.35436950400197	0	0	0
297	1	1	42.75234069399957	-28.419046091494018	235.14936146518656	0	0	0
298	1	1	43.35448633757703	-29.144300257045085	235.48316832442032	0	0	0
299	1	1	43.95663198115449	-29.21784211976668	236.2781602856049	0	0	0
300	1	1	44.558777624731945	-29.943096285317747	236.61196714483867	0	0	0
301	1	1	45.1609232683094	-30.01663814803934	237.40695910602327	0	0	0
302	1	1	45.76306891188686	-30.74189231359041	237.74076596525703	0	0	0
303	1	1	46.36521455546432	-30.815434176312003	238.53575792644162	0	0	0
304	1	1	46.96736019904178	-31.54068834186307	238.86956478567538	0	0	0
305	1	1	47.569505842619236	-31.614230204584665	239.66455674685997	0	0	0
306	1	1	48.171651486196694	-32.33948437013573	239.99836360609373	0	0	0
307	1	1	48.77379712977415	-32.41302623285733	240.79335556727833	0	0	0
308	1	1	49.37594277335161	-33.13828039840839	241.1271624265121	0	0	0
309	1	1	49.97808841692907	-33.21182226112999	241.92215438769668	0	0	0
310	1	1	50.58023406050653	-33.93707642668105	242.25596124693044	0	0	0
311	1	1	51.182379704083985	-34.01061828940265	243.05095320811503	0	0	0
312	1	1	51.78452534766144	-34.735872454953714	243.3847600673488	0	0	0
313	1	1	52.3866709912389	-34.80941431767531	244.1797520285334	0	0	0
314	1	1	52.98881663481636	-35.534668483226376	244.51355888776715	0	0	0
315	1	1	53.59096227839382	-35.608210345947974	245.30855084895174	0	0	0
316	1	1	54.193107921971276	-36.33346451149904	245.6423577081855	0	0	0
317	1	1	54.795253565548734	-36.407006374220636	246.4373496693701	0	0	0
318	1	1	55.39739920912619	-37.1322605397717	246.77115652860385	0	0	0
319	1	1	55.99954485270365	-37.2058024024933	247.56614848978845	0	0	0
320	1	1	56.60169049628111	-37.93105656804436	247.8999553490222	0	0	0
321	1	1	57.203836139858566	-38.00459843076596	248.6949473102068	0	0	0
322	1	1	57.805981783436025	-38.72985259631702	249.02875416944056	0	0	0
323	1	1	58.40812742701348	-38.80339445903862	249.82374613062515	0	0	0
324	1	1	59.01027307059094	-39.528648624589685	250.1575529898589	0	0	0
325	1	1	59.6124187141684	-39.60219048731128	250.9525449510435	0	0	0
326	1	1	60.21456435774586	-40.32744465286235	251.28635181027727	0	0	0
327	1	1	60.816710001323315	-40.400986515583945	252.08134377146186	0	0	0
328	1	1	61.41885564490077	-41.12624068113501	252.41515063069562	0	0	0
329	1	1	62.02100128847823	-41.19978254385661	253.2101425918802	0	0	0
330	1	1	62.62314693205569	-41.92503670940767	253.54394945111397	0	0	0
331	1	1	63.22529257563315	-41.99857857212927	254.33894141229857	0	0	0
332	1	1	63.827438219210606	-42.72383273768033	254.67274827153233	0	0	0
333	1	1	64.42958386278806	-42.79737460040193	255.46774023271692	0	0	0
334	1	1	65.03172950636552	-43.522628765952994	255.80154709195068	0	0	0
335	1	1	65.63387514994298	-43.59617062867459	256.5965390531353	0	0	0
336	1	1	66.23602079352044	-44.321424794225656	256.9303459123691	0	0	0
337	1	1	66.8381664370979	-44.394966656947254	257.7253378735537	0	0	0
338	1	1	67.44031208067535	-45.12022082249832	258.0591447327875	0	0	0
339	1	1	68.04245772425281	-45.193762685219916	258.8541366939721	0	0	0
340	1	1	68.64460336783027	-45.91901685077098	259.1879435532059	0	0	0
341	1	1	69.24674901140773	-45.99255871349258	259.98293551439053	0	0	0
342	1	1	69.84889465498519	-46.71781287904364	260.3167423736243	0	0	0
343	1	1	70.45104029856265	-46.79135474176524	261.11173433480894	0	0	0
344	1	1	71.0531859421401	-47.516608907316304	261.44554119404273	0	0	0
345	1	1	71.65533158571756	-47.5901507700379	262.24053315522735	0	0	0
346	1	1	72.25747722929502	-48.315404935588965	262.57434001446114	0	0	0
347	1	1	72.85962287287248	-48.38894679831056	263.36933197564576	0	0	0
348	1	1	73.46176851644994	-49.11420096386163	263.70313883487955	0	0	0
349	1	1	74.0639141600274	-49.187742826583225	264.4981307960642	0	0	0
350	1	1	74.66605980360485	-49.91299699213429	264.83193765529796	0	0	0
351	1	1	75.26820544718231	-49.98653885485589	265.6269296164826	0	0	0
352	1	1	75.87035109075977	-50.71179302040695	265.9607364757164	0	0	0
353	1	1	76.47249673433723	-50.78533488312855	266.755728436901	0	0	0
354	1	1	77.07464237791469	-51.51058904867961	267.0895352961348	0	0	0
355	1	1	77.67678802149214	-51.58413091140121	267.8845272573194	0	0	0
356	1	1	78.2789336650696	-52.309385076952275	268.2183341165532	0	0	0
357	1	1	78.88107930864706	-52.38292693967387	269.0133260777378	0	0	0
358	1	1	79.48322495222452	-53.108181105224936	269.3471329369716	0	0	0
359	1	1	80.08537059580198	-53.181722967946534	270.1421248981562	0	0	0
360	1	1	80.68751623937943	-53.9069771334976	270.47593175739	0	0	0
361	1	1	81.28966188295689	-53.980518996219196	271.27092371857464	0	0	0
362	1	1	81.89180752653435	-54.70577316177026	271.6047305778084	0	0	0
363	1	1	82.49395317011181	-54.77931502449186	272.39972253899305	0	0	0
364	1	1	83.09609881368927	-55.50456919004292	272.73352939822684	0	0	0
365	1	1	83.69824445726672	-55.57811105276452	273.52852135941146	0	0	0
366	1	1	84.30039010084418	-56.303365218315584	273.86232821864525	0	0	0
367	1	1	84.90253574442164	-56.37690708103718	274.65732017982987	0	0	0
368	1	1	85.5046813879991	-57.102161246588246	274.99112703906366	0	0	0
369	1	1	86.10682703157656	-57.17570310930984	275.7861190002483	0	0	0
370	1	1	86.70897267515402	-57.90095727486091	276.11992585948207	0	0	0
371	1	1	87.31111831873147	-57.974499137582505	276.9149178206667	0	0	0
372	1	1	87.91326396230893	-58.69975330313357	277.2487246799005	0	0	0
373	1	1	88.51540960588639	-58.77329516585517	278.0437166410851	0	0	0
374	1	1	89.11755524946385	-59.49854933140623	278.3775235003189	0	0	0
375	1	1	89.7197008930413	-59.57209119412783	279.1725154615035	0	0	0
376	1	1	90.32184653661876	-60.29734535967889	279.5063223207373	0	0	0
377	1	1	90.92399218019622	-60.37088722240049	280.3013142819219	0	0	0
378	1	1	91.52613782377368	-61.096141387951555	280.6351211411557	0	0	0
379	1	1	92.12828346735114	-61.16968325067315	281.43011310234033	0	0	0
380	1	1	92.7304291109286	-61.89493741622422	281.7639199615741	0	0	0
381	1	1	93.33257475450606	-61.968479278945814	282.55891192275874	0	0	0
382	1	1	93.93472039808351	-62.69373344449688	282.8927187819925	0	0	0
383	1	1	94.53686604166097	-62.767275307218476	283.68771074317715	0	0	0
384	1	1	95.13901168523843	-63.49252947276954	284.02151760241094	0	0	0
385	1	1	95.74115732881589	-63.56607133549114	284.81650956359556	0	0	0
386	1	1	96.34330297239335	-64.29132550104221	285.15031642282935	0	0	0
387	1	1	96.9454486159708	-64.3648673637638	285.94530838401397	0	0	0
388	1	1	97.54759425954826	-65.09012152931487	286.27911524324776	0	0	0
389	1	1	98.14973990312572	-65.16366339203647	287.0741072044324	0	0	0
390	1	1	98.75188554670318	-65.88891755758753	287.40791406366617	0	0	0
391	1	1	99.35403119028064	-65.96245942030913	288.2029060248508	0	0	0
392	1	1	99.9561768338581	-66.6877135858602	288.5367128840846	0	0	0
393	1	1	100.55832247743555	-66.76125544858179	289.3317048452692	0	0	0
394	1	1	101.16046812101301	-67.48650961413286	289.665511704503	0	0	0
395	1	1	101.76261376459047	-67.56005147685445	290.4605036656876	0	0	0
396	1	1	102.36475940816793	-68.28530564240552	290.7943105249214	0	0	0
397	1	1	102.96690505174539	-68.35884750512712	291.589302486106	0	0	0
398	1	1	103.56905069532284	-69.08410167067818	291.9231093453398	0	0	0
399	1	1	104.1711963389003	-69.15764353339978	292.71810130652443	0	0	0
400	1	1	104.77334198247776	-69.88289769895084	293.0519081657582	0	0	0
401	1	1	105.37548762605522	-69.95643956167244	293.84690012694284	0	0	0
402	1	1	105.97763326963268	-70.6816937272235	294.18070698617663	0	0	0
403	1	1	106.57977891321013	-70.7552355899451	294.97569894736125	0	0	0
404	1	1	107.18192455678759	-71.48048975549617	295.30950580659504	0	0	0
405	1	1	107.78407020036505	-71.55403161821776	296.10449776777966	0	0	0
406	1	1	108.38621584394251	-72.27928578376883	296.43830462701345	0	0	0
407	1	1	108.98836148751997	-72.35282764649043	297.2332965881981	0	0	0
408	1	1	109.59050713109743	-73.07808181204149	297.56710344743186	0	0	0
409	1	1	110.19265277467488	-73.15162367476309	298.3620954086165	0	0	0
410	1	1	110.79479841825234	-73.87687784031415	298.6959022678503	0	0	0
411	1	1	111.3969440618298	-73.95041970303575	299.4908942290349	0	0	0
412	1	1	111.99908970540726	-74.67567386858681	299.8247010882687	0	0	0
413	1	1	112.60123534898472	-74.74921573130841	300.6196930494533	0	0	0
414	1	1	113.20338099256217	-75.47446989685947	300.9534999086871	0	0	0
415	1	1	113.80552663613963	-75.54801175958107	301.7484918698717	0	0	0
416	1	1	114.40767227971709	-76.27326592513214	302.0822987291055	0	0	0
417	1	1	115.00981792329455	-76.34680778785373	302.8772906902901	0	0	0
418	1	1	115.611963566872	-77.0720619534048	303.2110975495239	0	0	0
419	1	1	116.21410921044946	-77.1456038161264	304.00608951070853	0	0	0
420	1	1	116.81625485402692	-77.87085798167746	304.3398963699423	0	0	0
421	1	1	117.41840049760438	-77.94439984439906	305.13488833112694	0	0	0
422	1	1	118.02054614118184	-78.66965400995012	305.46869519036073	0	0	0
423	1	1	118.6226917847593	-78.74319587267172	306.26368715154535	0	0	0
424	1	1	119.22483742833676	-79.46845003822278	306.59749401077914	0	0	0
425	1	1	119.82698307191421	-79.54199190094438	307.39248597196377	0	0	0
426	1	1	120.42912871549167	-80.26724606649545	307.72629283119755	0	0	0
427	1	1	121.03127435906913	-80.34078792921704	308.5212847923822	0	0	0
428	1	1	121.63342000264659	-81.06604209476811	308.85509165161596	0	0	0
429	1	1	122.23556564622405	-81.1395839574897	309.6500836128006	0	0	0
430	1	1	122.8377112898015	-81.86483812304077	309.9838904720344	0	0	0
431	1	1	123.43985693337896	-81.93837998576237	310.778882433219	0	0	0
432	1	1	124.04200257695642	-82.66363415131343	311.1126892924528	0	0	0
433	1	1	124.64414822053388	-82.73717601403503	311.9076812536374	0	0	0
434	1	1	125.24629386411134	-83.4624301795861	312.2414881128712	0	0	0
435	1	1	125.8484395076888	-83.53597204230769	313.0364800740558	0	0	0
436	1	1	126.45058515126625	-84.26122620785875	313.3702869332896	0	0	0
437	1	1	127.05273079484371	-84.33476807058035	314.1652788944742	0	0	0
438	1	1	127.65487643842117	-85.06002223613142	314.499085753708	0	0	0
439	1	1	128.25702208199863	-85.13356409885301	315.29407771489264	0	0	0
440	1	1	128.8591677255761	-85.85881826440408	315.6278845741264	0	0	0
441	1	1	129.46131336915357	-85.93236012712568	316.42287653531105	0	0	0
442	1	1	130.06345901273104	-86.65761429267674	316.75668339454484	0	0	0
443	1	1	130.66560465630852	-86.73115615539834	317.55167535572946	0	0	0
444	1	1	131.267750299886	-87.4564103209494	317.88548221496325	0	0	0
445	1	1	131.86989594346346	-87.529952183671	318.68047417614787	0	0	0
446	1	1	132.47204158704093	-88.25520634922206	319.01428103538166	0	0	0
447	1	1	133.0741872306184	-88.32874821194366	319.8092729965663	0	0	0
448	1	1	133.67633287419588	-89.05400237749473	320.14307985580007	0	0	0
449	1	1	134.27847851777335	-89.12754424021632	320.9380718169847	0	0	0
450	1	1	134.88062416135082	-89.85279840576739	321.2718786762185	0	0	0
451	1	1	135.4827698049283	-89.92634026848899	322.0668706374031	0	0	0
452	1	1	-0.9291613533564479	0.02933846271765702	195.358198838439	0	0	0
453	1	1	-1.858322706712888	-0.1295078786230058	195.69200569767276	0	0	0
454	1	1	-2.7874840600693283	0.08015417076060385	195.99647409418887	0	0	0
455	1	1	-3.7166454134257685	-0.07869217058005898	196.33028095342263	0	0	0
456	1	1	-4.645806766782209	0.13096987880355068	196.63474934993874	0	0	0
457	1	1	-5.574968120138649	-0.02787646253711215	196.9685562091725	0	0	0
458	1	1	-6.504129473495089	0.1817855868464975	197.27302460568862	0	0	0
459	1	1	-7.433290826851529	0.022939245505834677	197.60683146492238	0	0	0
460	1	1	-8.362452180207969	0.23260129488944434	197.9112998614385	0	0	0
461	1	1	-9.291613533564409	0.0737549535487815	198.24510672067225	0	0	0
462	1	1	-10.220774886920848	0.28341700293239114	198.54957511718837	0	0	0
463	1	1	-11.149936240277288	0.1245706615917283	198.88338197642213	0	0	0
464	1	1	-12.079097593633728	0.33423271097533797	199.18785037293824	0	0	0
465	1	1	-13.008258946990168	0.17538636963467513	199.521657232172	0	0	0
466	1	1	-13.937420300346608	0.3850484190182848	199.82612562868812	0	0	0
467	1	1	-14.866581653703047	0.22620207767762196	200.15993248792188	0	0	0
468	1	1	-15.795743007059487	0.4358641270612316	200.464400884438	0	0	0
469	1	1	-16.724904360415927	0.2770177857205688	200.79820774367175	0	0	0
470	1	1	-17.65406571377237	0.48667983510417845	201.10267614018787	0	0	0
471	1	1	-18.58322706712881	0.3278334937635156	201.43648299942163	0	0	0
472	1	1	-19.51238842048525	0.5374955431471253	201.74095139593774	0	0	0
473	1	1	-20.441549773841693	0.3786492018064625	202.0747582551715	0	0	0
474	1	1	-21.370711127198135	0.5883112511900721	202.37922665168762	0	0	0
475	1	1	-22.299872480554576	0.42946490984940927	202.71303351092138	0	0	0
476	1	1	-23.229033833911018	0.6391269592330189	203.0175019074375	0	0	0
477	1	1	-24.15819518726746	0.48028061789235604	203.35130876667125	0	0	0
478	1	1	-25.0873565406239	0.6899426672759656	203.65577716318737	0	0	0
479	1	1	-26.016517893980343	0.5310963259353028	203.98958402242113	0	0	0
480	1	1	-26.945679247336784	0.7407583753189124	204.29405241893724	0	0	0
481	1	1	-27.874840600693226	0.5819120339782495	204.627859278171	0	0	0
482	1	1	-28.804001954049667	0.7915740833618592	204.93232767468712	0	0	0
483	1	1	-29.73316330740611	0.6327277420211963	205.26613453392088	0	0	0
484	1	1	-30.66232466076255	0.842389791404806	205.570602930437	0	0	0
485	1	1	-31.591486014118992	0.6835434500641431	205.90440978967075	0	0	0
486	1	1	-32.52064736747543	0.8932054994477527	206.20887818618687	0	0	0
487	1	1	-33.449808720831875	0.7343591581070898	206.54268504542063	0	0	0
488	1	1	-34.37897007418832	0.9440212074906995	206.84715344193674	0	0	0
489	1	1	-35.30813142754476	0.7851748661500366	207.1809603011705	0	0	0
490	1	1	-36.2372927809012	0.9948369155336463	207.48542869768661	0	0	0
491	1	1	-37.16645413425764	0.8359905741929834	207.81923555692038	0	0	0
492	1	1	-38.09561548761408	1.045652623576593	208.1237039534365	0	0	0
493	1	1	-39.024776840970524	0.8868062822359302	208.45751081267025	0	0	0
494	1	1	-39.953938194326966	1.0964683316195398	208.76197920918636	0	0	0
495	1	1	-40.88309954768341	0.9376219902788769	209.09578606842013	0	0	0