bb551nuc1bl275bn4d30tot1100V2

1101 atoms
1100 bonds
1102 angles

1 atom types
1 bond types
1 angle types

-1000 1000 xlo xhi
-1000 1000 ylo yhi
-1000 1000 zlo zhi

Masses

1 1

Atoms

1	1	1	0.0	0.0	0.0	0	0	0
2	1	1	0.0	0.0	1.0	0	0	0
3	1	1	0.0	-0.49999999999999994	1.8660254037844388	0	0	0
4	1	1	0.0	0.0	2.7320508075688776	0	0	0
5	1	1	0.0	-0.49999999999999994	3.5980762113533165	0	0	0
6	1	1	0.0	0.0	4.464101615137755	0	0	0
7	1	1	0.0	-0.49999999999999994	5.330127018922194	0	0	0
8	1	1	0.0	0.0	6.196152422706632	0	0	0
9	1	1	0.0	-0.49999999999999994	7.06217782649107	0	0	0
10	1	1	0.0	0.0	7.928203230275509	0	0	0
11	1	1	0.0	-0.49999999999999994	8.794228634059948	0	0	0
12	1	1	0.0	0.0	9.660254037844387	0	0	0
13	1	1	0.0	-0.49999999999999994	10.526279441628827	0	0	0
14	1	1	0.0	0.0	11.392304845413266	0	0	0
15	1	1	0.0	-0.49999999999999994	12.258330249197705	0	0	0
16	1	1	0.0	0.0	13.124355652982144	0	0	0
17	1	1	0.0	-0.49999999999999994	13.990381056766584	0	0	0
18	1	1	0.0	0.0	14.856406460551023	0	0	0
19	1	1	0.0	-0.49999999999999994	15.722431864335462	0	0	0
20	1	1	0.0	0.0	16.5884572681199	0	0	0
21	1	1	0.0	-0.49999999999999994	17.454482671904337	0	0	0
22	1	1	0.0	0.0	18.320508075688775	0	0	0
23	1	1	0.0	-0.49999999999999994	19.186533479473212	0	0	0
24	1	1	0.0	0.0	20.05255888325765	0	0	0
25	1	1	0.0	-0.49999999999999994	20.918584287042087	0	0	0
26	1	1	0.0	0.0	21.784609690826525	0	0	0
27	1	1	0.0	-0.49999999999999994	22.650635094610962	0	0	0
28	1	1	0.0	0.0	23.5166604983954	0	0	0
29	1	1	0.0	-0.49999999999999994	24.382685902179837	0	0	0
30	1	1	0.0	0.0	25.248711305964274	0	0	0
31	1	1	0.0	-0.49999999999999994	26.114736709748712	0	0	0
32	1	1	0.0	0.0	26.98076211353315	0	0	0
33	1	1	0.0	-0.49999999999999994	27.846787517317587	0	0	0
34	1	1	0.0	0.0	28.712812921102024	0	0	0
35	1	1	0.0	-0.49999999999999994	29.578838324886462	0	0	0
36	1	1	0.0	0.0	30.4448637286709	0	0	0
37	1	1	0.0	-0.49999999999999994	31.310889132455337	0	0	0
38	1	1	0.0	0.0	32.17691453623978	0	0	0
39	1	1	0.0	-0.49999999999999994	33.04293994002422	0	0	0
40	1	1	0.0	0.0	33.90896534380866	0	0	0
41	1	1	0.0	-0.49999999999999994	34.7749907475931	0	0	0
42	1	1	0.0	0.0	35.64101615137754	0	0	0
43	1	1	0.0	-0.49999999999999994	36.50704155516198	0	0	0
44	1	1	0.0	0.0	37.373066958946424	0	0	0
45	1	1	0.0	-0.49999999999999994	38.239092362730865	0	0	0
46	1	1	0.0	0.0	39.105117766515306	0	0	0
47	1	1	0.0	-0.49999999999999994	39.97114317029975	0	0	0
48	1	1	0.0	0.0	40.83716857408419	0	0	0
49	1	1	0.0	-0.49999999999999994	41.70319397786863	0	0	0
50	1	1	0.0	0.0	42.56921938165307	0	0	0
51	1	1	0.0	-0.49999999999999994	43.43524478543751	0	0	0
52	1	1	0.0	0.0	44.30127018922195	0	0	0
53	1	1	0.0	-0.49999999999999994	45.16729559300639	0	0	0
54	1	1	0.0	0.0	46.033320996790835	0	0	0
55	1	1	0.0	-0.49999999999999994	46.899346400575276	0	0	0
56	1	1	0.0	0.0	47.76537180435972	0	0	0
57	1	1	0.0	-0.49999999999999994	48.63139720814416	0	0	0
58	1	1	0.0	0.0	49.4974226119286	0	0	0
59	1	1	0.0	-0.49999999999999994	50.36344801571304	0	0	0
60	1	1	0.0	0.0	51.22947341949748	0	0	0
61	1	1	0.0	-0.49999999999999994	52.09549882328192	0	0	0
62	1	1	0.0	0.0	52.96152422706636	0	0	0
63	1	1	0.0	-0.49999999999999994	53.827549630850804	0	0	0
64	1	1	0.0	0.0	54.693575034635245	0	0	0
65	1	1	0.0	-0.49999999999999994	55.559600438419686	0	0	0
66	1	1	0.0	0.0	56.42562584220413	0	0	0
67	1	1	0.0	-0.49999999999999994	57.29165124598857	0	0	0
68	1	1	0.0	0.0	58.15767664977301	0	0	0
69	1	1	0.0	-0.49999999999999994	59.02370205355745	0	0	0
70	1	1	0.0	0.0	59.88972745734189	0	0	0
71	1	1	0.0	-0.49999999999999994	60.75575286112633	0	0	0
72	1	1	0.0	0.0	61.62177826491077	0	0	0
73	1	1	0.0	-0.49999999999999994	62.487803668695214	0	0	0
74	1	1	0.0	0.0	63.353829072479655	0	0	0
75	1	1	0.0	-0.49999999999999994	64.21985447626409	0	0	0
76	1	1	0.0	0.0	65.08587988004852	0	0	0
77	1	1	0.0	-0.49999999999999994	65.95190528383296	0	0	0
78	1	1	0.0	0.0	66.81793068761739	0	0	0
79	1	1	0.0	-0.49999999999999994	67.68395609140183	0	0	0
80	1	1	0.0	0.0	68.54998149518626	0	0	0
81	1	1	0.0	-0.49999999999999994	69.41600689897069	0	0	0
82	1	1	0.0	0.0	70.28203230275513	0	0	0
83	1	1	0.0	-0.49999999999999994	71.14805770653956	0	0	0
84	1	1	0.0	0.0	72.014083110324	0	0	0
85	1	1	0.0	-0.49999999999999994	72.88010851410843	0	0	0
86	1	1	0.0	0.0	73.74613391789286	0	0	0
87	1	1	0.0	-0.49999999999999994	74.6121593216773	0	0	0
88	1	1	0.0	0.0	75.47818472546173	0	0	0
89	1	1	0.0	-0.49999999999999994	76.34421012924616	0	0	0
90	1	1	0.0	0.0	77.2102355330306	0	0	0
91	1	1	0.0	-0.49999999999999994	78.07626093681503	0	0	0
92	1	1	0.0	0.0	78.94228634059947	0	0	0
93	1	1	0.0	-0.49999999999999994	79.8083117443839	0	0	0
94	1	1	0.0	0.0	80.67433714816833	0	0	0
95	1	1	0.0	-0.49999999999999994	81.54036255195277	0	0	0
96	1	1	0.0	0.0	82.4063879557372	0	0	0
97	1	1	0.0	-0.49999999999999994	83.27241335952164	0	0	0
98	1	1	0.0	0.0	84.13843876330607	0	0	0
99	1	1	0.0	-0.49999999999999994	85.0044641670905	0	0	0
100	1	1	0.0	0.0	85.87048957087494	0	0	0
101	1	1	0.0	-0.49999999999999994	86.73651497465937	0	0	0
102	1	1	0.0	0.0	87.6025403784438	0	0	0
103	1	1	0.0	-0.49999999999999994	88.46856578222824	0	0	0
104	1	1	0.0	0.0	89.33459118601267	0	0	0
105	1	1	0.0	-0.49999999999999994	90.20061658979711	0	0	0
106	1	1	0.0	0.0	91.06664199358154	0	0	0
107	1	1	0.0	-0.49999999999999994	91.93266739736598	0	0	0
108	1	1	0.0	0.0	92.79869280115041	0	0	0
109	1	1	0.0	-0.49999999999999994	93.66471820493484	0	0	0
110	1	1	0.0	0.0	94.53074360871928	0	0	0
111	1	1	0.0	-0.49999999999999994	95.39676901250371	0	0	0
112	1	1	0.0	0.0	96.26279441628814	0	0	0
113	1	1	0.0	-0.49999999999999994	97.12881982007258	0	0	0
114	1	1	0.0	0.0	97.99484522385701	0	0	0
115	1	1	0.0	-0.49999999999999994	98.86087062764145	0	0	0
116	1	1	0.0	0.0	99.72689603142588	0	0	0
117	1	1	0.0	-0.49999999999999994	100.59292143521031	0	0	0
118	1	1	0.0	0.0	101.45894683899475	0	0	0
119	1	1	0.0	-0.49999999999999994	102.32497224277918	0	0	0
120	1	1	0.0	0.0	103.19099764656362	0	0	0
121	1	1	0.0	-0.49999999999999994	104.05702305034805	0	0	0
122	1	1	0.0	0.0	104.92304845413248	0	0	0
123	1	1	0.0	-0.49999999999999994	105.78907385791692	0	0	0
124	1	1	0.0	0.0	106.65509926170135	0	0	0
125	1	1	0.0	-0.49999999999999994	107.52112466548579	0	0	0
126	1	1	0.0	0.0	108.38715006927022	0	0	0
127	1	1	0.0	-0.49999999999999994	109.25317547305465	0	0	0
128	1	1	0.0	0.0	110.11920087683909	0	0	0
129	1	1	0.0	-0.49999999999999994	110.98522628062352	0	0	0
130	1	1	0.0	0.0	111.85125168440796	0	0	0
131	1	1	0.0	-0.49999999999999994	112.71727708819239	0	0	0
132	1	1	0.0	0.0	113.58330249197682	0	0	0
133	1	1	0.0	-0.49999999999999994	114.44932789576126	0	0	0
134	1	1	0.0	0.0	115.31535329954569	0	0	0
135	1	1	0.0	-0.49999999999999994	116.18137870333013	0	0	0
136	1	1	0.0	0.0	117.04740410711456	0	0	0
137	1	1	0.0	-0.49999999999999994	117.913429510899	0	0	0
138	1	1	0.0	0.0	118.77945491468343	0	0	0
139	1	1	0.0	-0.49999999999999994	119.64548031846786	0	0	0
140	1	1	0.0	0.0	120.5115057222523	0	0	0
141	1	1	0.0	-0.49999999999999994	121.37753112603673	0	0	0
142	1	1	0.0	0.0	122.24355652982116	0	0	0
143	1	1	0.0	-0.49999999999999994	123.1095819336056	0	0	0
144	1	1	0.0	0.0	123.97560733739003	0	0	0
145	1	1	0.0	-0.49999999999999994	124.84163274117446	0	0	0
146	1	1	0.0	0.0	125.7076581449589	0	0	0
147	1	1	0.0	-0.49999999999999994	126.57368354874333	0	0	0
148	1	1	0.0	0.0	127.43970895252777	0	0	0
149	1	1	0.0	-0.49999999999999994	128.3057343563122	0	0	0
150	1	1	0.0	0.0	129.17175976009665	0	0	0
151	1	1	0.0	-0.49999999999999994	130.0377851638811	0	0	0
152	1	1	0.0	0.0	130.90381056766554	0	0	0
153	1	1	0.0	-0.49999999999999994	131.76983597145	0	0	0
154	1	1	0.0	0.0	132.63586137523444	0	0	0
155	1	1	0.0	-0.49999999999999994	133.5018867790189	0	0	0
156	1	1	0.0	0.0	134.36791218280334	0	0	0
157	1	1	0.0	-0.49999999999999994	135.23393758658779	0	0	0
158	1	1	0.0	0.0	136.09996299037223	0	0	0
159	1	1	0.0	-0.49999999999999994	136.96598839415668	0	0	0
160	1	1	0.0	0.0	137.83201379794113	0	0	0
161	1	1	0.0	-0.49999999999999994	138.69803920172558	0	0	0
162	1	1	0.0	0.0	139.56406460551003	0	0	0
163	1	1	0.0	-0.49999999999999994	140.43009000929447	0	0	0
164	1	1	0.0	0.0	141.29611541307892	0	0	0
165	1	1	0.0	-0.49999999999999994	142.16214081686337	0	0	0
166	1	1	0.0	0.0	143.02816622064782	0	0	0
167	1	1	0.0	-0.49999999999999994	143.89419162443227	0	0	0
168	1	1	0.0	0.0	144.76021702821672	0	0	0
169	1	1	0.0	-0.49999999999999994	145.62624243200116	0	0	0
170	1	1	0.0	0.0	146.4922678357856	0	0	0
171	1	1	0.0	-0.49999999999999994	147.35829323957006	0	0	0
172	1	1	0.0	0.0	148.2243186433545	0	0	0
173	1	1	0.0	-0.49999999999999994	149.09034404713896	0	0	0
174	1	1	0.0	0.0	149.9563694509234	0	0	0
175	1	1	0.0	-0.49999999999999994	150.82239485470785	0	0	0
176	1	1	0.0	0.0	151.6884202584923	0	0	0
177	1	1	0.0	-0.49999999999999994	152.55444566227675	0	0	0
178	1	1	0.0	0.0	153.4204710660612	0	0	0
179	1	1	0.0	-0.49999999999999994	154.28649646984564	0	0	0
180	1	1	0.0	0.0	155.1525218736301	0	0	0
181	1	1	0.0	-0.49999999999999994	156.01854727741454	0	0	0
182	1	1	0.0	0.0	156.884572681199	0	0	0
183	1	1	0.0	-0.49999999999999994	157.75059808498344	0	0	0
184	1	1	0.0	0.0	158.61662348876789	0	0	0
185	1	1	0.0	-0.49999999999999994	159.48264889255233	0	0	0
186	1	1	0.0	0.0	160.34867429633678	0	0	0
187	1	1	0.0	-0.49999999999999994	161.21469970012123	0	0	0
188	1	1	0.0	0.0	162.08072510390568	0	0	0
189	1	1	0.0	-0.49999999999999994	162.94675050769013	0	0	0
190	1	1	0.0	0.0	163.81277591147457	0	0	0
191	1	1	0.0	-0.49999999999999994	164.67880131525902	0	0	0
192	1	1	0.0	0.0	165.54482671904347	0	0	0
193	1	1	0.0	-0.49999999999999994	166.41085212282792	0	0	0
194	1	1	0.0	0.0	167.27687752661237	0	0	0
195	1	1	0.0	-0.49999999999999994	168.14290293039682	0	0	0
196	1	1	0.0	0.0	169.00892833418126	0	0	0
197	1	1	0.0	-0.49999999999999994	169.8749537379657	0	0	0
198	1	1	0.0	0.0	170.74097914175016	0	0	0
199	1	1	0.0	-0.49999999999999994	171.6070045455346	0	0	0
200	1	1	0.0	0.0	172.47302994931906	0	0	0
201	1	1	0.0	-0.49999999999999994	173.3390553531035	0	0	0
202	1	1	0.0	0.0	174.20508075688795	0	0	0
203	1	1	0.0	-0.49999999999999994	175.0711061606724	0	0	0
204	1	1	0.0	0.0	175.93713156445685	0	0	0
205	1	1	0.0	-0.49999999999999994	176.8031569682413	0	0	0
206	1	1	0.0	0.0	177.66918237202574	0	0	0
207	1	1	0.0	-0.49999999999999994	178.5352077758102	0	0	0
208	1	1	0.0	0.0	179.40123317959464	0	0	0
209	1	1	0.0	-0.49999999999999994	180.2672585833791	0	0	0
210	1	1	0.0	0.0	181.13328398716354	0	0	0
211	1	1	0.0	-0.49999999999999994	181.99930939094799	0	0	0
212	1	1	0.0	0.0	182.86533479473243	0	0	0
213	1	1	0.0	-0.49999999999999994	183.73136019851688	0	0	0
214	1	1	0.0	0.0	184.59738560230133	0	0	0
215	1	1	0.0	-0.49999999999999994	185.46341100608578	0	0	0
216	1	1	0.0	0.0	186.32943640987023	0	0	0
217	1	1	0.0	-0.49999999999999994	187.19546181365467	0	0	0
218	1	1	0.0	0.0	188.06148721743912	0	0	0
219	1	1	0.0	-0.49999999999999994	188.92751262122357	0	0	0
220	1	1	0.0	0.0	189.79353802500802	0	0	0
221	1	1	0.0	-0.49999999999999994	190.65956342879247	0	0	0
222	1	1	0.0	0.0	191.52558883257691	0	0	0
223	1	1	0.0	-0.49999999999999994	192.39161423636136	0	0	0
224	1	1	0.0	0.0	193.2576396401458	0	0	0
225	1	1	0.0	-0.49999999999999994	194.12366504393026	0	0	0
226	1	1	0.0	0.0	194.9896904477147	0	0	0
227	1	1	0.0	-0.49999999999999994	195.85571585149916	0	0	0
228	1	1	0.0	0.0	196.7217412552836	0	0	0
229	1	1	0.0	-0.49999999999999994	197.58776665906805	0	0	0
230	1	1	0.0	0.0	198.4537920628525	0	0	0
231	1	1	0.0	-0.49999999999999994	199.31981746663695	0	0	0
232	1	1	0.0	0.0	200.1858428704214	0	0	0
233	1	1	0.0	-0.49999999999999994	201.05186827420584	0	0	0
234	1	1	0.0	0.0	201.9178936779903	0	0	0
235	1	1	0.0	-0.49999999999999994	202.78391908177474	0	0	0
236	1	1	0.0	0.0	203.6499444855592	0	0	0
237	1	1	0.0	-0.49999999999999994	204.51596988934364	0	0	0
238	1	1	0.0	0.0	205.38199529312809	0	0	0
239	1	1	0.0	-0.49999999999999994	206.24802069691253	0	0	0
240	1	1	0.0	0.0	207.11404610069698	0	0	0
241	1	1	0.0	-0.49999999999999994	207.98007150448143	0	0	0
242	1	1	0.0	0.0	208.84609690826588	0	0	0
243	1	1	0.0	-0.49999999999999994	209.71212231205033	0	0	0
244	1	1	0.0	0.0	210.57814771583477	0	0	0
245	1	1	0.0	-0.49999999999999994	211.44417311961922	0	0	0
246	1	1	0.0	0.0	212.31019852340367	0	0	0
247	1	1	0.0	-0.49999999999999994	213.17622392718812	0	0	0
248	1	1	0.0	0.0	214.04224933097257	0	0	0
249	1	1	0.0	-0.49999999999999994	214.90827473475701	0	0	0
250	1	1	0.0	0.0	215.77430013854146	0	0	0
251	1	1	0.0	-0.49999999999999994	216.6403255423259	0	0	0
252	1	1	0.0	0.0	217.50635094611036	0	0	0
253	1	1	0.0	-0.49999999999999994	218.3723763498948	0	0	0
254	1	1	0.0	0.0	219.23840175367926	0	0	0
255	1	1	0.0	-0.49999999999999994	220.1044271574637	0	0	0
256	1	1	0.0	0.0	220.97045256124815	0	0	0
257	1	1	0.0	-0.49999999999999994	221.8364779650326	0	0	0
258	1	1	0.0	0.0	222.70250336881705	0	0	0
259	1	1	0.0	-0.49999999999999994	223.5685287726015	0	0	0
260	1	1	0.0	0.0	224.43455417638594	0	0	0
261	1	1	0.0	-0.49999999999999994	225.3005795801704	0	0	0
262	1	1	0.0	0.0	226.16660498395484	0	0	0
263	1	1	0.0	-0.49999999999999994	227.0326303877393	0	0	0
264	1	1	0.0	0.0	227.89865579152374	0	0	0
265	1	1	0.0	-0.49999999999999994	228.76468119530819	0	0	0
266	1	1	0.0	0.0	229.63070659909263	0	0	0
267	1	1	0.0	-0.49999999999999994	230.49673200287708	0	0	0
268	1	1	0.0	0.0	231.36275740666153	0	0	0
269	1	1	0.0	-0.49999999999999994	232.22878281044598	0	0	0
270	1	1	0.0	0.0	233.09480821423043	0	0	0
271	1	1	0.0	-0.49999999999999994	233.96083361801487	0	0	0
272	1	1	0.0	0.0	234.82685902179932	0	0	0
273	1	1	0.0	-0.49999999999999994	235.69288442558377	0	0	0
274	1	1	0.0	0.0	236.55890982936822	0	0	0
275	1	1	0.0	-0.49999999999999994	237.42493523315267	0	0	0
276	1	1	0.0	0.0	238.29096063693711	0	0	0
277	1	1	0.9244401263625609	0.3265517153090734	238.487872876271	0	0	0
278	1	1	1.8488802527251142	0.5108976767491635	238.82167973550477	0	0	0
279	1	1	2.7733203790876675	0.8921558775231515	238.82893487942948	0	0	0
280	1	1	3.697760505450221	1.0765018389632417	239.16274173866324	0	0	0
281	1	1	4.622200631812774	1.4577600397372297	239.16999688258795	0	0	0
282	1	1	5.546640758175327	1.6421060011773199	239.5038037418217	0	0	0
283	1	1	6.47108088453788	2.023364201951308	239.51105888574642	0	0	0
284	1	1	7.395521010900433	2.2077101633913983	239.84486574498018	0	0	0
285	1	1	8.319961137262986	2.5889683641653862	239.8521208889049	0	0	0
286	1	1	9.244401263625539	2.7733143256054764	240.18592774813865	0	0	0
287	1	1	10.168841389988092	3.1545725263794644	240.19318289206336	0	0	0
288	1	1	11.093281516350645	3.3389184878195546	240.52698975129712	0	0	0
289	1	1	12.017721642713198	3.7201766885935426	240.53424489522183	0	0	0
290	1	1	12.942161769075751	3.9045226500336327	240.8680517544556	0	0	0
291	1	1	13.866601895438304	4.285780850807621	240.8753068983803	0	0	0
292	1	1	14.791042021800857	4.4701268122477105	241.20911375761406	0	0	0
293	1	1	15.71548214816341	4.851385013021698	241.21636890153877	0	0	0
294	1	1	16.639922274525965	5.035730974461788	241.55017576077253	0	0	0
295	1	1	17.56436240088852	5.416989175235775	241.55743090469724	0	0	0
296	1	1	18.488802527251075	5.601335136675865	241.891237763931	0	0	0
297	1	1	19.41324265361363	5.9825933374498526	241.8984929078557	0	0	0
298	1	1	20.337682779976184	6.166939298889942	242.23229976708947	0	0	0
299	1	1	21.26212290633874	6.54819749966393	242.23955491101418	0	0	0
300	1	1	22.186563032701294	6.73254346110402	242.57336177024794	0	0	0
301	1	1	23.11100315906385	7.113801661878007	242.58061691417265	0	0	0
302	1	1	24.035443285426403	7.298147623318097	242.9144237734064	0	0	0
303	1	1	24.959883411788958	7.679405824092084	242.92167891733112	0	0	0
304	1	1	25.884323538151513	7.863751785532174	243.25548577656488	0	0	0
305	1	1	26.808763664514068	8.245009986306162	243.2627409204896	0	0	0
306	1	1	27.733203790876622	8.429355947746252	243.59654777972335	0	0	0
307	1	1	28.657643917239177	8.81061414852024	243.60380292364806	0	0	0
308	1	1	29.582084043601732	8.994960109960331	243.93760978288182	0	0	0
309	1	1	30.506524169964287	9.37621831073432	243.94486492680653	0	0	0
310	1	1	31.43096429632684	9.56056427217441	244.2786717860403	0	0	0
311	1	1	32.355404422689396	9.941822472948399	244.285926929965	0	0	0
312	1	1	33.27984454905195	10.12616843438849	244.61973378919876	0	0	0
313	1	1	34.204284675414506	10.507426635162478	244.62698893312347	0	0	0
314	1	1	35.12872480177706	10.691772596602569	244.96079579235723	0	0	0
315	1	1	36.053164928139616	11.073030797376557	244.96805093628194	0	0	0
316	1	1	36.97760505450217	11.257376758816648	245.3018577955157	0	0	0
317	1	1	37.902045180864725	11.638634959590636	245.3091129394404	0	0	0
318	1	1	38.82648530722728	11.822980921030727	245.64291979867417	0	0	0
319	1	1	39.750925433589835	12.204239121804715	245.65017494259888	0	0	0
320	1	1	40.67536555995239	12.388585083244806	245.98398180183264	0	0	0
321	1	1	41.599805686314944	12.769843284018794	245.99123694575735	0	0	0
322	1	1	42.5242458126775	12.954189245458885	246.3250438049911	0	0	0
323	1	1	43.448685939040054	13.335447446232873	246.33229894891582	0	0	0
324	1	1	44.37312606540261	13.519793407672964	246.66610580814958	0	0	0
325	1	1	45.29756619176516	13.901051608446952	246.6733609520743	0	0	0
326	1	1	46.22200631812772	14.085397569887043	247.00716781130805	0	0	0
327	1	1	47.14644644449027	14.466655770661031	247.01442295523276	0	0	0
328	1	1	48.07088657085283	14.651001732101122	247.34822981446652	0	0	0
329	1	1	48.99532669721538	15.03225993287511	247.35548495839123	0	0	0
330	1	1	49.91976682357794	15.216605894315201	247.689291817625	0	0	0
331	1	1	50.84420694994049	15.59786409508919	247.6965469615497	0	0	0
332	1	1	51.76864707630305	15.78221005652928	248.03035382078346	0	0	0
333	1	1	52.6930872026656	16.16346825730327	248.03760896470817	0	0	0
334	1	1	53.61752732902816	16.34781421874336	248.37141582394193	0	0	0
335	1	1	54.54196745539071	16.729072419517347	248.37867096786664	0	0	0
336	1	1	55.466407581753266	16.913418380957438	248.7124778271004	0	0	0
337	1	1	56.39084770811582	17.294676581731427	248.7197329710251	0	0	0
338	1	1	57.315287834478376	17.479022543171517	249.05353983025887	0	0	0
339	1	1	58.23972796084093	17.860280743945506	249.06079497418358	0	0	0
340	1	1	59.164168087203485	18.044626705385596	249.39460183341734	0	0	0
341	1	1	60.08860821356604	18.425884906159585	249.40185697734205	0	0	0
342	1	1	61.013048339928595	18.610230867599675	249.7356638365758	0	0	0
343	1	1	61.93748846629115	18.991489068373664	249.74291898050052	0	0	0
344	1	1	62.861928592653705	19.175835029813754	250.07672583973428	0	0	0
345	1	1	63.78636871901626	19.557093230587743	250.083980983659	0	0	0
346	1	1	64.7108088453788	19.741439192027833	250.41778784289275	0	0	0
347	1	1	65.63524897174136	20.122697392801822	250.42504298681746	0	0	0
348	1	1	66.55968909810392	20.307043354241912	250.75884984605122	0	0	0
349	1	1	67.48412922446647	20.6883015550159	250.76610498997593	0	0	0
350	1	1	68.40856935082903	20.87264751645599	251.0999118492097	0	0	0
351	1	1	69.33300947719158	21.25390571722998	251.1071669931344	0	0	0
352	1	1	70.25744960355414	21.43825167867007	251.44097385236816	0	0	0
353	1	1	71.18188972991669	21.81950987944406	251.44822899629287	0	0	0
354	1	1	72.10632985627925	22.00385584088415	251.78203585552663	0	0	0
355	1	1	73.0307699826418	22.385114041658138	251.78929099945134	0	0	0
356	1	1	73.95521010900435	22.56946000309823	252.1230978586851	0	0	0
357	1	1	74.87965023536691	22.950718203872217	252.1303530026098	0	0	0
358	1	1	75.80409036172946	23.135064165312308	252.46415986184357	0	0	0
359	1	1	76.72853048809202	23.516322366086296	252.47141500576828	0	0	0
360	1	1	77.65297061445457	23.700668327526387	252.80522186500204	0	0	0
361	1	1	78.57741074081713	24.081926528300375	252.81247700892675	0	0	0
362	1	1	79.50185086717968	24.266272489740466	253.1462838681605	0	0	0
363	1	1	80.42629099354224	24.647530690514454	253.15353901208522	0	0	0
364	1	1	81.3507311199048	24.831876651954545	253.48734587131898	0	0	0
365	1	1	82.27517124626735	25.213134852728533	253.4946010152437	0	0	0
366	1	1	83.1996113726299	25.397480814168624	253.82840787447745	0	0	0
367	1	1	84.12405149899246	25.778739014942612	253.83566301840216	0	0	0
368	1	1	85.04849162535501	25.963084976382703	254.16946987763592	0	0	0
369	1	1	85.97293175171757	26.34434317715669	254.17672502156063	0	0	0
370	1	1	86.89737187808012	26.528689138596782	254.5105318807944	0	0	0
371	1	1	87.82181200444268	26.90994733937077	254.5177870247191	0	0	0
372	1	1	88.74625213080523	27.09429330081086	254.85159388395286	0	0	0
373	1	1	89.67069225716779	27.47555150158485	254.85884902787757	0	0	0
374	1	1	90.59513238353034	27.65989746302494	255.19265588711133	0	0	0
375	1	1	91.5195725098929	28.04115566379893	255.19991103103604	0	0	0
376	1	1	92.44401263625545	28.22550162523902	255.5337178902698	0	0	0
377	1	1	93.368452762618	28.606759826013008	255.5409730341945	0	0	0
378	1	1	94.29289288898056	28.7911057874531	255.87477989342827	0	0	0
379	1	1	95.21733301534312	29.172363988227087	255.88203503735298	0	0	0
380	1	1	96.14177314170567	29.356709949667177	256.21584189658677	0	0	0
381	1	1	97.06621326806822	29.737968150441166	256.22309704051145	0	0	0
382	1	1	97.99065339443078	29.922314111881256	256.55690389974524	0	0	0
383	1	1	98.91509352079333	30.303572312655245	256.5641590436699	0	0	0
384	1	1	99.83953364715589	30.487918274095335	256.8979659029037	0	0	0
385	1	1	100.76397377351844	30.869176474869324	256.9052210468284	0	0	0
386	1	1	101.688413899881	31.053522436309414	257.2390279060622	0	0	0
387	1	1	102.61285402624355	31.434780637083403	257.24628304998686	0	0	0
388	1	1	103.53729415260611	31.619126598523493	257.58008990922065	0	0	0
389	1	1	104.46173427896866	32.00038479929748	257.5873450531453	0	0	0
390	1	1	105.38617440533122	32.184730760737565	257.9211519123791	0	0	0
391	1	1	106.31061453169377	32.56598896151155	257.9284070563038	0	0	0
392	1	1	107.23505465805633	32.75033492295164	258.2622139155376	0	0	0
393	1	1	108.15949478441888	33.13159312372562	258.26946905946227	0	0	0
394	1	1	109.08393491078144	33.31593908516571	258.60327591869606	0	0	0
395	1	1	110.00837503714399	33.697197285939694	258.61053106262074	0	0	0
396	1	1	110.93281516350655	33.88154324737978	258.9443379218545	0	0	0
397	1	1	111.8572552898691	34.262801448153766	258.9515930657792	0	0	0
398	1	1	112.78169541623166	34.44714740959385	259.285399925013	0	0	0
399	1	1	113.70613554259421	34.82840561036784	259.2926550689377	0	0	0
400	1	1	114.63057566895677	35.012751571807925	259.62646192817147	0	0	0
401	1	1	115.55501579531932	35.39400977258191	259.63371707209615	0	0	0
402	1	1	116.47945592168188	35.578355734022	259.96752393132994	0	0	0
403	1	1	117.40389604804443	35.95961393479598	259.9747790752546	0	0	0
404	1	1	118.32833617440699	36.14395989623607	260.3085859344884	0	0	0
405	1	1	119.25277630076954	36.525218097010054	260.3158410784131	0	0	0
406	1	1	120.1772164271321	36.70956405845014	260.6496479376469	0	0	0
407	1	1	121.10165655349465	37.090822259224126	260.65690308157156	0	0	0
408	1	1	122.0260966798572	37.27516822066421	260.99070994080535	0	0	0
409	1	1	122.95053680621976	37.6564264214382	260.99796508473	0	0	0
410	1	1	123.87497693258231	37.840772382878285	261.3317719439638	0	0	0
411	1	1	124.79941705894487	38.22203058365227	261.3390270878885	0	0	0
412	1	1	125.72385718530742	38.40637654509236	261.6728339471223	0	0	0
413	1	1	126.64829731166998	38.78763474586634	261.68008909104697	0	0	0
414	1	1	127.57273743803253	38.97198070730643	262.01389595028076	0	0	0
415	1	1	128.4971775643951	39.353238908080414	262.02115109420544	0	0	0
416	1	1	129.42161769075764	39.5375848695205	262.3549579534392	0	0	0
417	1	1	130.3460578171202	39.918843070294486	262.3622130973639	0	0	0
418	1	1	131.27049794348275	40.10318903173457	262.6960199565977	0	0	0
419	1	1	132.1949380698453	40.48444723250856	262.7032751005224	0	0	0
420	1	1	133.11937819620786	40.668793193948645	263.03708195975616	0	0	0
421	1	1	134.04381832257042	41.05005139472263	263.04433710368085	0	0	0
422	1	1	134.96825844893297	41.23439735616272	263.37814396291463	0	0	0
423	1	1	135.89269857529553	41.6156555569367	263.3853991068393	0	0	0
424	1	1	136.81713870165808	41.80000151837679	263.7192059660731	0	0	0
425	1	1	137.74157882802064	42.18125971915077	263.7264611099978	0	0	0
426	1	1	138.6660189543832	42.36560568059086	264.0602679692316	0	0	0
427	1	1	139.59045908074575	42.746863881364845	264.06752311315626	0	0	0
428	1	1	140.5148992071083	42.93120984280493	264.40132997239004	0	0	0
429	1	1	141.43933933347085	43.31246804357892	264.4085851163147	0	0	0
430	1	1	142.3637794598334	43.496814005019004	264.7423919755485	0	0	0
431	1	1	143.28821958619596	43.87807220579299	264.7496471194732	0	0	0
432	1	1	144.21265971255852	44.062418167233076	265.083453978707	0	0	0
433	1	1	145.13709983892107	44.44367636800706	265.09070912263167	0	0	0
434	1	1	146.06153996528363	44.62802232944715	265.42451598186545	0	0	0
435	1	1	146.98598009164618	45.00928053022113	265.43177112579014	0	0	0
436	1	1	147.91042021800874	45.19362649166122	265.7655779850239	0	0	0
437	1	1	148.8348603443713	45.574884692435205	265.7728331289486	0	0	0
438	1	1	149.75930047073385	45.75923065387529	266.1066399881824	0	0	0
439	1	1	150.6837405970964	46.14048885464928	266.1138951321071	0	0	0
440	1	1	151.60818072345896	46.324834816089364	266.44770199134086	0	0	0
441	1	1	152.5326208498215	46.70609301686335	266.45495713526554	0	0	0
442	1	1	153.45706097618407	46.890438978303436	266.78876399449933	0	0	0
443	1	1	154.38150110254662	47.27169717907742	266.796019138424	0	0	0
444	1	1	155.30594122890918	47.45604314051751	267.1298259976578	0	0	0
445	1	1	156.23038135527173	47.83730134129149	267.1370811415825	0	0	0
446	1	1	157.1548214816343	48.02164730273158	267.4708880008163	0	0	0
447	1	1	158.07926160799684	48.402905503505565	267.47814314474095	0	0	0
448	1	1	159.0037017343594	48.58725146494565	267.81195000397474	0	0	0
449	1	1	159.92814186072195	48.96850966571964	267.8192051478994	0	0	0
450	1	1	160.8525819870845	49.152855627159724	268.1530120071332	0	0	0
451	1	1	161.77702211344706	49.53411382793371	268.1602671510579	0	0	0
452	1	1	162.70146223980962	49.718459789373796	268.4940740102917	0	0	0
453	1	1	163.62590236617217	50.09971799014778	268.50132915421636	0	0	0
454	1	1	164.55034249253472	50.28406395158787	268.83513601345015	0	0	0
455	1	1	165.47478261889728	50.66532215236185	268.84239115737483	0	0	0
456	1	1	166.39922274525983	50.84966811380194	269.1761980166086	0	0	0
457	1	1	167.3236628716224	51.230926314575925	269.1834531605333	0	0	0
458	1	1	168.24810299798494	51.41527227601601	269.5172600197671	0	0	0
459	1	1	169.1725431243475	51.79653047679	269.5245151636918	0	0	0
460	1	1	170.09698325071005	51.980876438230084	269.85832202292556	0	0	0
461	1	1	171.0214233770726	52.36213463900407	269.86557716685024	0	0	0
462	1	1	171.94586350343516	52.546480600444156	270.19938402608403	0	0	0
463	1	1	172.87030362979772	52.92773880121814	270.2066391700087	0	0	0
464	1	1	173.79474375616027	53.11208476265823	270.5404460292425	0	0	0
465	1	1	174.71918388252283	53.49334296343221	270.5477011731672	0	0	0
466	1	1	175.64362400888538	53.6776889248723	270.881508032401	0	0	0
467	1	1	176.56806413524794	54.058947125646284	270.88876317632565	0	0	0
468	1	1	177.4925042616105	54.24329308708637	271.22257003555944	0	0	0
469	1	1	178.41694438797305	54.624551287860356	271.2298251794841	0	0	0
470	1	1	179.3413845143356	54.80889724930044	271.5636320387179	0	0	0
471	1	1	180.26582464069816	55.19015545007443	271.5708871826426	0	0	0
472	1	1	181.1902647670607	55.374501411514515	271.9046940418764	0	0	0
473	1	1	182.11470489342327	55.7557596122885	271.91194918580106	0	0	0
474	1	1	183.03914501978582	55.94010557372859	272.24575604503485	0	0	0
475	1	1	183.96358514614838	56.32136377450257	272.25301118895953	0	0	0
476	1	1	184.88802527251093	56.50570973594266	272.5868180481933	0	0	0
477	1	1	185.81246539887348	56.886967936716644	272.594073192118	0	0	0
478	1	1	186.73690552523604	57.07131389815673	272.9278800513518	0	0	0
479	1	1	187.6613456515986	57.452572098930716	272.9351351952765	0	0	0
480	1	1	188.58578577796115	57.6369180603708	273.26894205451026	0	0	0
481	1	1	189.5102259043237	58.01817626114479	273.27619719843494	0	0	0
482	1	1	190.43466603068626	58.202522222584875	273.61000405766873	0	0	0
483	1	1	191.3591061570488	58.58378042335886	273.6172592015934	0	0	0
484	1	1	192.28354628341137	58.76812638479895	273.9510660608272	0	0	0
485	1	1	193.20798640977392	59.14938458557293	273.9583212047519	0	0	0
486	1	1	194.13242653613648	59.33373054701302	274.2921280639857	0	0	0
487	1	1	195.05686666249903	59.714988747787004	274.29938320791035	0	0	0
488	1	1	195.9813067888616	59.89933470922709	274.63319006714414	0	0	0
489	1	1	196.90574691522414	60.280592910001076	274.6404452110688	0	0	0
490	1	1	197.8301870415867	60.46493887144116	274.9742520703026	0	0	0
491	1	1	198.75462716794925	60.84619707221515	274.9815072142273	0	0	0
492	1	1	199.6790672943118	61.030543033655235	275.3153140734611	0	0	0
493	1	1	200.60350742067436	61.41180123442922	275.32256921738576	0	0	0
494	1	1	201.52794754703692	61.59614719586931	275.65637607661955	0	0	0
495	1	1	202.45238767339947	61.97740539664329	275.66363122054423	0	0	0
496	1	1	203.37682779976203	62.16175135808338	275.997438079778	0	0	0
497	1	1	204.30126792612458	62.543009558857364	276.0046932237027	0	0	0
498	1	1	205.22570805248714	62.72735552029745	276.3385000829365	0	0	0
499	1	1	206.1501481788497	63.108613721071436	276.3457552268612	0	0	0
500	1	1	207.07458830521225	63.29295968251152	276.67956208609496	0	0	0
501	1	1	207.9990284315748	63.67421788328551	276.68681723001964	0	0	0
502	1	1	208.92346855793735	63.858563844725595	277.02062408925343	0	0	0
503	1	1	209.8479086842999	64.23982204549958	277.0278792331781	0	0	0
504	1	1	210.77234881066246	64.42416800693967	277.3616860924119	0	0	0
505	1	1	211.69678893702502	64.80542620771365	277.3689412363366	0	0	0
506	1	1	212.62122906338757	64.98977216915374	277.70274809557037	0	0	0
507	1	1	213.54566918975013	65.37103036992772	277.71000323949505	0	0	0
508	1	1	214.47010931611268	65.55537633136781	278.04381009872884	0	0	0
509	1	1	215.39454944247524	65.9366345321418	278.0510652426535	0	0	0
510	1	1	216.3189895688378	66.12098049358188	278.3848721018873	0	0	0
511	1	1	217.24342969520035	66.50223869435587	278.392127245812	0	0	0
512	1	1	218.1678698215629	66.68658465579595	278.7259341050458	0	0	0
513	1	1	219.09230994792546	67.06784285656994	278.73318924897046	0	0	0