ITEM: TIMESTEP
0
ITEM: NUMBER OF ATOMS
101
ITEM: BOX BOUNDS pp pp pp
-1.0000000000000000e+03 1.0000000000000000e+03
-1.0000000000000000e+03 1.0000000000000000e+03
-1.0000000000000000e+03 1.0000000000000000e+03
ITEM: ATOMS id x y z ix iy iz
1 0.00000 0.00000 0.00000 0 0 0
2 0.00000 0.00000 1.00000 0 0 0
3 0.00000 -0.50000 1.86603 0 0 0
4 0.00000 0.00000 2.73205 0 0 0
5 0.00000 -0.50000 3.59808 0 0 0
6 0.00000 0.00000 4.46410 0 0 0
7 0.00000 -0.50000 5.33013 0 0 0
8 0.00000 0.00000 6.19615 0 0 0
9 0.00000 -0.50000 7.06218 0 0 0
10 0.00000 0.00000 7.92820 0 0 0
11 0.00000 -0.50000 8.79423 0 0 0
12 0.00000 0.00000 9.66025 0 0 0
13 0.00000 -0.50000 10.52628 0 0 0
14 0.00000 0.00000 11.39230 0 0 0
15 0.00000 -0.50000 12.25833 0 0 0
16 0.00000 0.00000 13.12436 0 0 0
17 0.00000 -0.50000 13.99038 0 0 0
18 0.00000 0.00000 14.85641 0 0 0
19 0.00000 -0.50000 15.72243 0 0 0
20 0.00000 0.00000 16.58846 0 0 0
21 0.00000 -0.50000 17.45448 0 0 0
22 0.83761 -0.55947 17.99750 0 0 0
23 1.67523 -0.88248 18.43803 0 0 0
24 2.51284 -0.66248 18.93803 0 0 0
25 3.35046 -0.98549 19.37856 0 0 0
26 4.18807 -0.76548 19.87856 0 0 0
27 5.02569 -1.08849 20.31909 0 0 0
28 5.86330 -0.86849 20.81909 0 0 0
29 6.70091 -1.19150 21.25962 0 0 0
30 7.53853 -0.97149 21.75962 0 0 0
31 8.37614 -1.29450 22.20015 0 0 0
32 9.21376 -1.07450 22.70015 0 0 0
33 10.05137 -1.39751 23.14068 0 0 0
34 10.88899 -1.17750 23.64068 0 0 0
35 11.72660 -1.50051 24.08121 0 0 0
36 12.56422 -1.28051 24.58121 0 0 0
37 13.40183 -1.60352 25.02174 0 0 0
38 14.23944 -1.38351 25.52174 0 0 0
39 15.07706 -1.70652 25.96227 0 0 0
40 15.91467 -1.48652 26.46227 0 0 0
41 16.75229 -1.80953 26.90280 0 0 0
42 -0.83761 -0.94053 17.77749 0 0 0
43 -1.67523 -1.48355 17.83696 0 0 0
44 -2.51284 -1.70355 18.33696 0 0 0
45 -3.35046 -2.24657 18.39643 0 0 0
46 -4.18807 -2.46657 18.89643 0 0 0
47 -5.02569 -3.00959 18.95590 0 0 0
48 -5.86330 -3.22959 19.45590 0 0 0
49 -6.70091 -3.77261 19.51537 0 0 0
50 -7.53853 -3.99261 20.01537 0 0 0
51 -8.37614 -4.53563 20.07484 0 0 0
52 -9.21376 -4.75563 20.57484 0 0 0
53 -10.05137 -5.29865 20.63431 0 0 0
54 -10.88899 -5.51865 21.13431 0 0 0
55 -11.72660 -6.06167 21.19378 0 0 0
56 -12.56422 -6.28167 21.69378 0 0 0
57 -13.40183 -6.82469 21.75325 0 0 0
58 -14.23944 -7.04469 22.25325 0 0 0
59 -15.07706 -7.58771 22.31272 0 0 0
60 -15.91467 -7.80771 22.81272 0 0 0
61 -16.75229 -8.35073 22.87219 0 0 0
62 0.25404 -1.33761 16.97089 0 0 0
63 0.50808 -1.82121 16.13327 0 0 0
64 0.76212 -2.78840 16.13327 0 0 0
65 1.01616 -3.27200 15.29566 0 0 0
66 1.27020 -4.23920 15.29566 0 0 0
67 1.52424 -4.72279 14.45804 0 0 0
68 1.77828 -5.68999 14.45804 0 0 0
69 2.03232 -6.17358 13.62043 0 0 0
70 2.28636 -7.14078 13.62043 0 0 0
71 2.54040 -7.62437 12.78281 0 0 0
72 2.79444 -8.59157 12.78281 0 0 0
73 3.04848 -9.07516 11.94520 0 0 0
74 3.30252 -10.04236 11.94520 0 0 0
75 3.55656 -10.52595 11.10759 0 0 0
76 3.81060 -11.49315 11.10759 0 0 0
77 4.06464 -11.97675 10.26997 0 0 0
78 4.31868 -12.94394 10.26997 0 0 0
79 4.57272 -13.42754 9.43236 0 0 0
80 4.82676 -14.39473 9.43236 0 0 0
81 5.08080 -14.87833 8.59474 0 0 0
82 -0.25404 0.33761 17.93808 0 0 0
83 -0.50808 0.82121 18.77569 0 0 0
84 -0.76212 1.78840 18.77569 0 0 0
85 -1.01616 2.27200 19.61331 0 0 0
86 -1.27020 3.23920 19.61331 0 0 0
87 -1.52424 3.72279 20.45092 0 0 0
88 -1.77828 4.68999 20.45092 0 0 0
89 -2.03232 5.17358 21.28854 0 0 0
90 -2.28636 6.14078 21.28854 0 0 0
91 -2.54040 6.62437 22.12615 0 0 0
92 -2.79444 7.59157 22.12615 0 0 0
93 -3.04848 8.07516 22.96377 0 0 0
94 -3.30252 9.04236 22.96377 0 0 0
95 -3.55656 9.52595 23.80138 0 0 0
96 -3.81060 10.49315 23.80138 0 0 0
97 -4.06464 10.97675 24.63899 0 0 0
98 -4.31868 11.94394 24.63899 0 0 0
99 -4.57272 12.42754 25.47661 0 0 0
100 -4.82676 13.39473 25.47661 0 0 0
101 -5.08080 13.87833 26.31422 0 0 0
ITEM: TIMESTEP
1000
ITEM: NUMBER OF ATOMS
101
ITEM: BOX BOUNDS pp pp pp
-1.0000000000000000e+03 1.0000000000000000e+03
-1.0000000000000000e+03 1.0000000000000000e+03
-1.0000000000000000e+03 1.0000000000000000e+03
ITEM: ATOMS id x y z ix iy iz
1 -1.14793 2.63760 5.56817 0 0 0
2 -0.58009 2.00609 5.07534 0 0 0
3 -0.63612 1.09394 4.68708 0 0 0
4 -0.90425 0.87497 5.69961 0 0 0
5 -1.63866 0.28455 5.84224 0 0 0
6 -2.53655 -0.05541 5.96860 0 0 0
7 -2.64293 -0.44665 6.86016 0 0 0
8 -2.40372 -1.22713 7.46448 0 0 0
9 -2.64554 -1.69799 8.33575 0 0 0
10 -3.30803 -1.32038 9.02511 0 0 0
11 -3.51206 -0.59826 9.72354 0 0 0
12 -3.79196 -0.48518 10.64741 0 0 0
13 -3.73679 -1.09450 11.37338 0 0 0
14 -3.85667 -1.38768 12.28672 0 0 0
15 -3.90114 -2.15507 12.87894 0 0 0
16 -3.28756 -2.32411 13.64401 0 0 0
17 -2.62006 -2.74354 14.15070 0 0 0
18 -2.17876 -2.86526 15.13743 0 0 0
19 -1.37510 -2.81617 15.62393 0 0 0
20 -1.34657 -2.13740 16.32972 0 0 0
21 -1.06713 -1.86299 17.25157 0 0 0
22 -0.32924 -1.69095 17.85548 0 0 0
23 0.39374 -2.04508 18.39531 0 0 0
24 0.34611 -1.59505 19.24749 0 0 0
25 1.19499 -1.63823 19.83297 0 0 0
26 2.06835 -1.97585 20.10121 0 0 0
27 2.98366 -1.59379 20.11184 0 0 0
28 3.97338 -1.44493 19.82234 0 0 0
29 4.67969 -0.89281 20.17997 0 0 0
30 5.19234 -0.15702 20.69501 0 0 0
31 6.01984 -0.59215 20.94343 0 0 0
32 6.06190 -0.10955 21.83533 0 0 0
33 6.45932 -0.69841 22.46432 0 0 0
34 6.56442 -0.91868 23.48680 0 0 0
35 7.36110 -1.48672 23.81469 0 0 0
36 8.08465 -2.12892 24.01767 0 0 0
37 8.89533 -1.64274 23.75964 0 0 0
38 9.58200 -1.03021 24.08886 0 0 0
39 10.08504 -1.72760 24.63818 0 0 0
40 9.91436 -1.58864 25.56568 0 0 0
41 10.03470 -0.87139 26.14155 0 0 0
42 -1.57152 -2.00838 18.11825 0 0 0
43 -1.79073 -2.51878 18.95892 0 0 0
44 -2.24871 -1.77142 19.55555 0 0 0
45 -3.01420 -1.16853 19.26015 0 0 0
46 -3.54388 -1.74006 19.82268 0 0 0
47 -4.17755 -1.84674 20.62749 0 0 0
48 -4.91561 -2.37385 20.33483 0 0 0
49 -5.93740 -2.53802 20.42089 0 0 0
50 -6.82222 -2.83153 20.47006 0 0 0
51 -7.71282 -3.02988 20.82256 0 0 0
52 -8.55228 -3.55252 20.80866 0 0 0
53 -9.38177 -3.56954 20.32583 0 0 0
54 -10.17472 -3.18511 19.99108 0 0 0
55 -11.02541 -3.66579 20.04812 0 0 0
56 -11.63391 -4.46331 20.29314 0 0 0
57 -12.07159 -4.55622 21.14072 0 0 0
58 -12.00215 -5.45801 20.86342 0 0 0
59 -12.57827 -6.22987 21.11673 0 0 0
60 -12.48344 -6.35779 20.16576 0 0 0
61 -13.14883 -5.62928 20.17007 0 0 0
62 -0.33129 -2.01180 16.55087 0 0 0
63 0.26312 -1.82166 15.77398 0 0 0
64 1.04034 -1.48047 15.21748 0 0 0
65 1.74624 -1.92273 14.80267 0 0 0
66 2.23878 -2.82109 14.90339 0 0 0
67 2.10304 -3.83086 14.76014 0 0 0
68 2.89052 -4.22246 14.30557 0 0 0
69 3.11866 -5.04045 13.81551 0 0 0
70 2.95650 -5.73543 13.17637 0 0 0
71 3.48338 -6.60068 13.17014 0 0 0
72 3.83785 -7.50453 12.93347 0 0 0
73 4.57679 -8.12147 12.76860 0 0 0
74 5.11279 -8.14465 11.97521 0 0 0
75 4.78269 -8.15617 11.02424 0 0 0
76 4.15949 -8.88263 10.65810 0 0 0
77 4.76102 -9.53772 11.03395 0 0 0
78 5.16988 -9.79554 11.98281 0 0 0
79 5.78532 -10.20776 11.27033 0 0 0
80 5.25604 -10.56966 10.45564 0 0 0
81 4.40224 -10.90911 10.66547 0 0 0
82 -1.77291 -1.21833 17.44984 0 0 0
83 -1.81984 -0.37895 18.12348 0 0 0
84 -2.73160 -0.13046 18.34543 0 0 0
85 -3.44873 0.48873 18.66768 0 0 0
86 -3.29834 1.40204 18.98879 0 0 0
87 -3.26383 2.34635 19.26957 0 0 0
88 -3.26540 3.28708 19.32213 0 0 0
89 -3.31299 3.38056 20.31821 0 0 0
90 -3.49491 4.25101 20.67647 0 0 0
91 -3.73412 5.17516 20.90784 0 0 0
92 -4.15486 5.43200 21.74956 0 0 0
93 -4.66357 6.16821 21.37333 0 0 0
94 -4.44587 7.16020 21.60540 0 0 0
95 -4.65986 8.03500 22.00931 0 0 0
96 -4.28077 9.04935 22.17393 0 0 0
97 -3.82960 9.76358 22.58132 0 0 0
98 -3.73144 9.46636 23.49557 0 0 0
99 -3.71778 9.48655 24.49081 0 0 0
100 -4.47548 9.21479 25.04581 0 0 0
101 -5.07894 9.38096 25.76604 0 0 0
ITEM: TIMESTEP
2000
ITEM: NUMBER OF ATOMS
101
ITEM: BOX BOUNDS pp pp pp
-1.0000000000000000e+03 1.0000000000000000e+03
-1.0000000000000000e+03 1.0000000000000000e+03
-1.0000000000000000e+03 1.0000000000000000e+03
ITEM: ATOMS id x y z ix iy iz
1 -0.13105 4.01464 6.84885 0 0 0
2 -0.13666 2.99530 6.80709 0 0 0
3 -1.04678 3.38694 6.71507 0 0 0
4 -1.74219 2.81618 7.18683 0 0 0
5 -1.72166 2.59040 8.16463 0 0 0
6 -2.42493 2.19633 8.69440 0 0 0
7 -2.66951 1.64027 9.41473 0 0 0
8 -3.73178 1.78795 9.52124 0 0 0
9 -4.26161 1.82286 10.37607 0 0 0
10 -3.93234 1.86310 11.33150 0 0 0
11 -3.92912 1.20971 12.08073 0 0 0
12 -3.23254 0.57245 12.45963 0 0 0
13 -2.85239 -0.03977 13.14094 0 0 0
14 -2.52486 -0.29759 14.07670 0 0 0
15 -1.69770 -0.49813 14.59980 0 0 0
16 -0.92951 -0.24429 15.17987 0 0 0
17 -0.17488 -0.00281 15.80002 0 0 0
18 0.70679 -0.03070 16.11380 0 0 0
19 0.63528 -0.80918 16.77492 0 0 0
20 -0.04689 -1.16000 17.31824 0 0 0
21 -0.78248 -1.31887 17.99456 0 0 0
22 0.00994 -1.40032 18.58180 0 0 0
23 0.74910 -1.44740 19.25786 0 0 0
24 1.38687 -1.96208 19.87699 0 0 0
25 2.30670 -1.92696 20.27951 0 0 0
26 3.17621 -1.83799 19.80642 0 0 0
27 4.13129 -2.08508 20.03716 0 0 0
28 5.12367 -2.06469 20.17852 0 0 0
29 6.05415 -2.18301 20.62688 0 0 0
30 6.61141 -2.92914 21.04940 0 0 0
31 7.34890 -2.30685 20.80716 0 0 0
32 8.27995 -2.24204 21.13134 0 0 0
33 9.20466 -2.51779 21.36742 0 0 0
34 10.06284 -2.99251 21.07214 0 0 0
35 10.97704 -2.73285 21.17547 0 0 0
36 11.16828 -2.33663 22.12329 0 0 0
37 10.70617 -1.51097 22.49029 0 0 0
38 10.36694 -1.25443 23.40347 0 0 0
39 10.54553 -1.40170 24.34719 0 0 0
40 11.10028 -1.73580 24.97927 0 0 0
41 11.53097 -2.24043 25.79872 0 0 0
42 -1.67696 -1.61470 17.71567 0 0 0
43 -2.53241 -1.29723 18.02271 0 0 0
44 -3.02436 -2.08668 18.42207 0 0 0
45 -3.79361 -2.21278 19.03860 0 0 0
46 -4.58114 -2.69628 18.70397 0 0 0
47 -4.52435 -3.49295 19.24986 0 0 0
48 -5.41142 -3.41418 19.50131 0 0 0
49 -6.21981 -3.49968 19.03445 0 0 0
50 -7.18815 -3.57761 19.06208 0 0 0
51 -7.79954 -2.83020 18.89728 0 0 0
52 -8.49231 -3.59035 18.67551 0 0 0
53 -8.93289 -4.44603 19.03722 0 0 0
54 -9.62232 -4.79106 19.58917 0 0 0
55 -10.62578 -4.77680 19.70177 0 0 0
56 -11.45921 -4.62523 20.13237 0 0 0
57 -12.04557 -5.40236 20.10951 0 0 0
58 -12.95961 -5.10372 20.32604 0 0 0
59 -13.51620 -4.83841 21.00914 0 0 0
60 -12.84726 -4.31987 21.60587 0 0 0
61 -12.91502 -3.40634 21.98446 0 0 0
62 -0.58167 -2.14859 17.59564 0 0 0
63 -0.76411 -1.91217 16.61518 0 0 0
64 -1.31323 -2.30739 15.87419 0 0 0
65 -0.92742 -3.21490 15.66107 0 0 0
66 -0.34402 -4.01902 15.37677 0 0 0
67 0.59555 -3.80069 15.03062 0 0 0
68 1.21935 -4.18662 14.37891 0 0 0
69 2.08447 -4.53254 14.17417 0 0 0
70 2.99196 -4.70262 13.92705 0 0 0
71 3.69484 -5.30107 14.14841 0 0 0
72 3.73426 -5.81800 13.28110 0 0 0
73 3.75039 -6.74236 12.83525 0 0 0
74 3.84809 -7.48233 12.10782 0 0 0
75 3.26020 -7.41076 11.34490 0 0 0
76 2.71117 -8.17230 11.01878 0 0 0
77 3.18933 -9.03985 11.06902 0 0 0
78 2.70887 -9.73668 10.54328 0 0 0
79 2.04215 -9.17644 10.29988 0 0 0
80 1.54809 -8.51337 9.81589 0 0 0
81 1.47596 -8.60987 8.80529 0 0 0
82 -1.40555 -0.61620 17.77325 0 0 0
83 -2.01362 0.05722 18.13388 0 0 0
84 -2.40272 0.95156 17.75031 0 0 0
85 -3.18908 1.16990 18.24955 0 0 0
86 -3.88499 1.89773 18.46078 0 0 0
87 -4.31384 2.73635 18.51144 0 0 0
88 -4.28963 3.72920 18.63041 0 0 0
89 -3.91495 4.37369 19.33496 0 0 0
90 -3.87499 4.99396 20.00345 0 0 0
91 -4.33838 5.80336 20.29452 0 0 0
92 -4.66765 6.53223 20.87081 0 0 0
93 -3.79497 6.73446 20.45227 0 0 0
94 -3.33860 7.55334 20.71329 0 0 0
95 -3.85172 8.20492 21.22129 0 0 0
96 -3.96972 7.66024 22.05358 0 0 0
97 -3.75622 8.09056 22.93655 0 0 0
98 -3.69088 9.03017 23.17727 0 0 0
99 -3.47143 9.80992 22.56662 0 0 0
100 -3.01343 10.01853 21.76154 0 0 0
101 -2.45983 10.86263 21.56108 0 0 0
ITEM: TIMESTEP
3000
ITEM: NUMBER OF ATOMS
101
ITEM: BOX BOUNDS pp pp pp
-1.0000000000000000e+03 1.0000000000000000e+03
-1.0000000000000000e+03 1.0000000000000000e+03
-1.0000000000000000e+03 1.0000000000000000e+03
ITEM: ATOMS id x y z ix iy iz
1 -0.28178 -0.05182 4.58880 0 0 0
2 -0.49530 -0.74942 5.17893 0 0 0
3 -0.98247 -0.10092 5.85162 0 0 0
4 -1.55549 0.40582 6.43012 0 0 0
5 -2.31190 1.02315 6.64199 0 0 0
6 -2.47418 1.39727 7.53707 0 0 0
7 -2.60797 1.25311 8.54906 0 0 0
8 -2.17747 0.45137 8.96837 0 0 0
9 -1.53533 0.03914 9.60257 0 0 0
10 -1.67221 0.16158 10.54495 0 0 0
11 -1.46052 -0.71768 10.87333 0 0 0
12 -2.04125 -0.55339 11.68681 0 0 0
13 -2.16307 -0.45265 12.72460 0 0 0
14 -1.79301 -0.26790 13.61388 0 0 0
15 -1.12825 0.19099 14.10115 0 0 0
16 -0.68183 0.36255 14.94482 0 0 0
17 -1.49558 0.40191 15.57881 0 0 0
18 -0.85304 0.03484 16.20091 0 0 0
19 -0.52608 -0.17649 17.05417 0 0 0
20 -0.89757 -0.09429 18.00759 0 0 0
21 -0.68522 -0.95802 18.36474 0 0 0
22 -0.39336 -1.39780 19.19713 0 0 0
23 0.25589 -1.80089 19.89781 0 0 0
24 1.14262 -1.49863 20.21234 0 0 0
25 1.85591 -1.92793 19.63207 0 0 0
26 2.72999 -1.65103 19.56352 0 0 0
27 3.28826 -1.77252 20.36653 0 0 0
28 3.55693 -1.89017 21.33633 0 0 0
29 4.45927 -1.83227 21.10505 0 0 0
30 4.99525 -1.84583 20.22166 0 0 0
31 5.39345 -1.01199 20.45351 0 0 0
32 6.27714 -1.12375 19.99825 0 0 0
33 7.13135 -1.10320 20.52168 0 0 0
34 7.89284 -1.35434 19.92209 0 0 0
35 7.81631 -1.95156 19.13307 0 0 0
36 8.63507 -2.24756 19.61856 0 0 0
37 8.84255 -2.67631 20.55923 0 0 0
38 8.46192 -3.57287 20.59532 0 0 0
39 8.55804 -3.62841 21.64633 0 0 0
40 8.77140 -3.02342 22.40666 0 0 0
41 8.05689 -2.31625 22.75071 0 0 0
42 -1.59864 -1.39032 18.51406 0 0 0
43 -2.44878 -1.94953 18.48587 0 0 0
44 -3.02418 -2.25094 19.22807 0 0 0
45 -2.89566 -2.47537 20.17526 0 0 0
46 -3.72555 -2.79752 20.33737 0 0 0
47 -4.29537 -3.18821 19.72061 0 0 0
48 -4.94735 -3.14314 20.37474 0 0 0
49 -5.97160 -3.10685 20.40111 0 0 0
50 -6.64109 -3.77151 20.93216 0 0 0
51 -7.58488 -3.72078 21.12879 0 0 0
52 -7.92526 -3.69757 20.11543 0 0 0
53 -7.82251 -3.75171 19.15049 0 0 0
54 -7.72819 -3.99544 18.27890 0 0 0
55 -8.00711 -4.70109 17.68029 0 0 0
56 -7.90051 -5.71570 17.83966 0 0 0
57 -8.75420 -6.05782 17.98675 0 0 0
58 -9.23516 -6.89346 18.20621 0 0 0
59 -9.89911 -7.60760 18.52346 0 0 0
60 -9.92785 -8.49652 18.72900 0 0 0
61 -10.70986 -9.08468 18.64213 0 0 0
62 -0.95677 -1.41698 17.53972 0 0 0
63 -0.07755 -1.29243 17.08999 0 0 0
64 0.48689 -1.71430 16.35698 0 0 0
65 1.12312 -1.69615 15.55776 0 0 0
66 1.80339 -1.21686 15.02312 0 0 0
67 2.45665 -0.72045 14.47525 0 0 0
68 2.88644 -0.91758 13.65385 0 0 0
69 3.48160 -1.66121 13.23664 0 0 0
70 3.22230 -2.19049 12.50213 0 0 0
71 3.27198 -3.12362 12.70119 0 0 0
72 2.99244 -3.92756 12.28450 0 0 0
73 2.80926 -4.91196 12.07730 0 0 0
74 2.01712 -5.36584 11.82522 0 0 0
75 1.76941 -6.27204 11.91527 0 0 0
76 1.15705 -6.96391 11.82464 0 0 0
77 0.99013 -7.83756 11.44357 0 0 0
78 0.29104 -7.82768 10.71223 0 0 0
79 0.50172 -8.72958 10.50143 0 0 0
80 1.20755 -9.26979 9.96007 0 0 0
81 1.97120 -9.80125 9.73833 0 0 0
82 -1.06004 -0.33542 19.08794 0 0 0
83 -1.04395 0.60009 19.32316 0 0 0
84 -1.29071 1.38951 20.02345 0 0 0
85 -2.03600 1.56879 20.64836 0 0 0
86 -2.90172 1.10258 21.03880 0 0 0
87 -2.66627 1.55122 21.92896 0 0 0
88 -2.44739 2.60791 22.05218 0 0 0
89 -2.79941 3.52359 21.77021 0 0 0
90 -3.27700 4.43119 21.64289 0 0 0
91 -3.21364 5.38124 21.59002 0 0 0
92 -2.43034 5.24102 22.10002 0 0 0
93 -2.74669 5.66515 23.00735 0 0 0
94 -3.56224 6.14032 23.05627 0 0 0
95 -3.29745 7.06924 23.24229 0 0 0
96 -3.64441 7.97613 23.29033 0 0 0
97 -3.31669 8.60339 23.99604 0 0 0
98 -2.44814 8.75381 23.47683 0 0 0
99 -1.67931 9.44005 23.49607 0 0 0
100 -1.30032 9.67532 22.57280 0 0 0
101 -1.63962 10.16691 21.83834 0 0 0
ITEM: TIMESTEP
4000
ITEM: NUMBER OF ATOMS
101
ITEM: BOX BOUNDS pp pp pp
-1.0000000000000000e+03 1.0000000000000000e+03
-1.0000000000000000e+03 1.0000000000000000e+03
-1.0000000000000000e+03 1.0000000000000000e+03
ITEM: ATOMS id x y z ix iy iz
1 -2.58139 1.07742 8.57379 0 0 0
2 -2.65776 0.36707 7.93265 0 0 0
3 -2.83302 -0.60914 7.88510 0 0 0
4 -2.42660 -0.99471 8.66135 0 0 0
5 -2.06541 -0.67589 9.50324 0 0 0
6 -1.50101 -0.13661 10.04838 0 0 0
7 -0.80637 -0.21189 10.83321 0 0 0
8 -0.15773 -0.12904 11.49026 0 0 0
9 -0.58720 -0.01985 12.39302 0 0 0
10 -1.11281 -0.76973 12.73964 0 0 0
11 -0.96781 -1.67791 13.19938 0 0 0
12 -1.26779 -2.16758 14.01884 0 0 0
13 -2.22459 -1.90574 13.75663 0 0 0
14 -1.83260 -1.03195 14.06097 0 0 0
15 -1.15446 -0.36313 14.16107 0 0 0
16 -1.02150 -0.06373 15.06190 0 0 0
17 -0.76583 -0.65482 15.73016 0 0 0
18 -1.18976 -0.34213 16.59008 0 0 0
19 -1.76709 -0.23414 17.40884 0 0 0
20 -1.21152 0.13943 18.18586 0 0 0
21 -0.54420 -0.49691 18.34747 0 0 0
22 0.08596 -1.19517 17.98824 0 0 0
23 1.05375 -1.38449 18.02777 0 0 0
24 1.52668 -2.21338 17.80997 0 0 0
25 1.52494 -1.94914 18.72619 0 0 0
26 2.16824 -2.58053 18.95315 0 0 0
27 2.65313 -1.67153 19.17341 0 0 0
28 3.46105 -1.02825 19.17775 0 0 0
29 3.54664 -0.81830 20.16387 0 0 0
30 3.83984 -0.12393 20.86565 0 0 0
31 4.34639 -0.85112 21.36236 0 0 0
32 4.91290 -0.15473 21.78727 0 0 0
33 5.33843 0.65675 22.15134 0 0 0
34 6.14031 0.94055 21.71123 0 0 0
35 6.85788 1.39075 21.29117 0 0 0
36 7.33489 1.90053 20.60594 0 0 0
37 6.67769 1.50032 19.96011 0 0 0
38 5.92981 2.15303 19.99347 0 0 0
39 5.03570 2.56613 20.03654 0 0 0
40 4.95431 1.70991 19.43583 0 0 0
41 4.35067 1.02736 19.66167 0 0 0
42 -0.69977 -0.92622 19.23274 0 0 0
43 -1.78150 -1.00934 19.12078 0 0 0
44 -2.48805 -1.63437 18.98219 0 0 0
45 -2.71181 -2.66439 19.14962 0 0 0
46 -3.58640 -2.89854 19.36707 0 0 0
47 -4.08188 -3.80232 19.44881 0 0 0
48 -4.42184 -4.65864 18.95246 0 0 0
49 -5.28265 -4.60672 18.54575 0 0 0
50 -5.91871 -5.19001 18.18612 0 0 0
51 -6.87114 -5.21617 18.37326 0 0 0
52 -7.47854 -5.97158 18.58338 0 0 0
53 -7.06646 -6.37149 19.34728 0 0 0
54 -6.86525 -6.76831 20.16813 0 0 0
55 -7.01779 -7.60216 20.79384 0 0 0
56 -6.50923 -8.18522 20.18677 0 0 0
57 -7.05567 -8.67129 19.52700 0 0 0
58 -6.82012 -9.29405 18.70861 0 0 0
59 -6.11514 -9.33149 18.04189 0 0 0
60 -5.19094 -9.15398 17.75908 0 0 0
61 -4.90034 -9.31816 18.69764 0 0 0
62 0.00927 -0.08431 17.61418 0 0 0
63 0.99019 -0.16093 17.47773 0 0 0
64 1.58505 -0.20813 16.59549 0 0 0
65 1.17925 -0.47649 15.77457 0 0 0
66 0.68585 -0.96913 15.14115 0 0 0
67 -0.05269 -1.53382 15.43116 0 0 0
68 0.02112 -2.21913 16.04700 0 0 0
69 -0.11991 -3.03941 15.46259 0 0 0
70 -0.59531 -3.13613 14.56963 0 0 0
71 -0.07254 -3.59557 13.82791 0 0 0
72 0.42680 -3.83319 12.98980 0 0 0
73 0.92892 -4.11889 12.24879 0 0 0
74 0.90860 -4.62011 11.44462 0 0 0
75 1.31163 -4.46790 10.59949 0 0 0
76 2.15834 -4.81018 10.42196 0 0 0
77 2.55687 -4.99066 9.64036 0 0 0
78 2.56267 -5.86873 9.90745 0 0 0
79 1.89441 -6.60646 9.86229 0 0 0
80 1.27244 -7.13032 10.37416 0 0 0
81 1.17569 -7.46901 11.28500 0 0 0
82 -0.31361 0.23430 19.00394 0 0 0
83 -0.78549 0.91765 19.43695 0 0 0
84 -1.62017 0.58686 19.80668 0 0 0
85 -1.47893 1.52034 20.24642 0 0 0
86 -1.18120 2.22266 20.86919 0 0 0
87 -0.43879 2.64888 21.32041 0 0 0
88 0.04072 3.44275 21.68488 0 0 0
89 -0.51124 4.23571 21.50348 0 0 0
90 -0.65802 5.18914 21.62103 0 0 0
91 -1.22756 5.20289 22.35708 0 0 0
92 -1.13247 5.53823 23.35031 0 0 0
93 -1.55232 5.70814 24.14553 0 0 0
94 -1.17458 6.57430 24.33442 0 0 0
95 -1.99950 6.95654 24.79916 0 0 0
96 -1.43366 7.71639 24.71471 0 0 0
97 -0.71618 8.38845 24.70366 0 0 0
98 0.17669 8.25331 24.36353 0 0 0
99 0.61625 8.17525 23.48783 0 0 0
100 0.75896 9.00473 23.95675 0 0 0
101 1.66695 8.74684 24.18635 0 0 0
ITEM: TIMESTEP
5000
ITEM: NUMBER OF ATOMS
101
ITEM: BOX BOUNDS pp pp pp
-1.0000000000000000e+03 1.0000000000000000e+03
-1.0000000000000000e+03 1.0000000000000000e+03
-1.0000000000000000e+03 1.0000000000000000e+03
ITEM: ATOMS id x y z ix iy iz
1 -0.11359 2.10225 10.45787 0 0 0
2 0.10417 1.14329 10.75107 0 0 0
3 -0.10347 0.39320 10.20242 0 0 0
4 -0.40788 0.07021 11.00978 0 0 0
5 0.17310 -0.48258 11.48827 0 0 0
6 0.54313 -1.35723 11.68305 0 0 0
7 1.18789 -1.31525 12.34120 0 0 0
8 0.70498 -1.13307 13.21848 0 0 0
9 1.06327 -1.85416 13.82456 0 0 0
10 0.77708 -1.06716 14.48150 0 0 0
11 -0.11317 -0.64642 14.14784 0 0 0
12 -1.05802 -0.62024 14.38766 0 0 0
13 -0.76603 -0.91080 15.30052 0 0 0
14 -0.20710 -0.07163 15.33811 0 0 0
15 -0.58356 0.43309 14.58835 0 0 0
16 -0.41339 1.39510 14.68038 0 0 0
17 -1.27868 1.46713 15.00958 0 0 0
18 -1.74615 1.79149 15.82870 0 0 0
19 -1.13824 1.31654 16.42125 0 0 0
20 -0.38826 1.29352 17.15966 0 0 0
21 0.07445 0.59919 17.68088 0 0 0
22 0.30330 -0.23794 18.12563 0 0 0
23 0.57634 -0.44209 19.00676 0 0 0
24 0.81095 -1.29461 19.55842 0 0 0
25 1.06214 -1.96687 20.27418 0 0 0
26 1.16857 -2.25081 19.27750 0 0 0
27 2.00273 -2.79147 19.27073 0 0 0
28 2.90570 -2.42474 19.58348 0 0 0
29 3.23597 -1.69951 20.09564 0 0 0
30 3.90537 -1.00374 19.73608 0 0 0
31 4.79792 -1.23623 20.01715 0 0 0
32 5.60680 -1.17852 19.45485 0 0 0
33 5.12403 -0.74607 18.70545 0 0 0
34 5.05134 0.16168 19.14649 0 0 0
35 5.07450 1.09611 18.89752 0 0 0
36 5.78553 0.60977 18.47294 0 0 0
37 6.65810 1.09042 18.81357 0 0 0
38 7.39868 0.75112 19.26481 0 0 0
39 8.32217 0.45221 19.53585 0 0 0
40 8.81034 -0.42257 19.27913 0 0 0
41 9.28180 -1.23511 19.21013 0 0 0
42 -0.66442 0.01262 17.89062 0 0 0
43 -1.34289 0.10326 18.49535 0 0 0
44 -2.31011 0.28550 18.65863 0 0 0
45 -2.25889 -0.64978 18.56311 0 0 0
46 -3.13012 -1.03102 18.76087 0 0 0
47 -3.95552 -1.52212 19.14259 0 0 0
48 -4.48917 -2.31680 19.29028 0 0 0
49 -4.94879 -3.07820 18.89398 0 0 0
50 -5.45221 -3.89580 18.84799 0 0 0
51 -5.18244 -4.87452 18.77283 0 0 0
52 -5.91074 -5.49409 18.83969 0 0 0
53 -6.45374 -6.03260 19.43873 0 0 0
54 -5.77593 -6.74198 19.22019 0 0 0
55 -6.10454 -7.59434 19.41951 0 0 0
56 -6.03967 -8.60374 19.59702 0 0 0
57 -5.89134 -9.19603 20.32422 0 0 0
58 -5.05125 -9.54787 19.96801 0 0 0
59 -4.20277 -9.40397 19.47494 0 0 0
60 -3.58423 -9.34035 20.23297 0 0 0
61 -3.33687 -10.28402 20.09101 0 0 0
62 0.57900 1.40293 17.09159 0 0 0
63 1.28466 1.48978 16.46847 0 0 0
64 1.13606 1.01487 15.51607 0 0 0
65 1.48315 1.14869 14.66636 0 0 0
66 1.25870 0.60442 13.83295 0 0 0
67 1.49360 0.32831 12.93651 0 0 0
68 2.30370 -0.01368 12.51807 0 0 0
69 3.01089 -0.63139 12.57334 0 0 0
70 3.75060 -1.38493 12.76127 0 0 0
71 3.18758 -1.56656 11.97095 0 0 0
72 2.52993 -2.34137 11.90832 0 0 0
73 1.83974 -2.32983 11.27447 0 0 0
74 1.06154 -2.65192 10.85629 0 0 0
75 0.39465 -2.10952 10.44132 0 0 0
76 -0.02278 -3.01212 10.35649 0 0 0
77 0.21963 -3.76288 9.72508 0 0 0
78 -0.12818 -4.39329 10.40804 0 0 0
79 0.51998 -4.97609 10.82389 0 0 0
80 0.82571 -5.78417 11.23464 0 0 0
81 0.37878 -6.65196 10.86126 0 0 0
82 -0.42849 1.30783 18.16672 0 0 0
83 -1.04510 1.21095 18.96410 0 0 0
84 -1.50154 1.87959 19.42924 0 0 0
85 -0.83637 2.64574 19.21667 0 0 0
86 -0.96324 2.74718 20.26697 0 0 0
87 -1.19120 3.29352 21.03866 0 0 0
88 -1.66405 4.02209 21.45187 0 0 0
89 -2.13357 4.81528 21.83470 0 0 0
90 -2.68154 4.32522 22.52205 0 0 0
91 -2.56291 5.17551 22.93088 0 0 0
92 -1.71330 5.46533 23.19880 0 0 0
93 -1.36644 5.14852 24.02695 0 0 0
94 -1.17821 5.81607 24.88829 0 0 0
95 -0.93673 6.71304 25.24533 0 0 0
96 -0.14402 6.29312 25.75923 0 0 0
97 0.56418 6.96478 25.85006 0 0 0
98 0.96812 7.80518 25.66249 0 0 0
99 0.96360 8.56366 26.32641 0 0 0
100 1.32447 9.35643 26.71005 0 0 0
101 1.39017 8.76518 27.52860 0 0 0
ITEM: TIMESTEP
6000
ITEM: NUMBER OF ATOMS
101
ITEM: BOX BOUNDS pp pp pp
-1.0000000000000000e+03 1.0000000000000000e+03
-1.0000000000000000e+03 1.0000000000000000e+03
-1.0000000000000000e+03 1.0000000000000000e+03
ITEM: ATOMS id x y z ix iy iz
1 -0.55304 -0.30060 12.65129 0 0 0
2 -0.76572 -1.23793 12.40964 0 0 0
3 -0.60843 -1.70656 11.56282 0 0 0
4 -0.20284 -2.54568 11.30243 0 0 0
5 0.70222 -2.77781 11.05212 0 0 0
6 1.57274 -3.15224 11.02074 0 0 0
7 1.93847 -2.45943 11.67733 0 0 0
8 1.87386 -2.56523 12.61752 0 0 0
9 1.47834 -1.68503 12.93489 0 0 0
10 0.98670 -1.78281 13.70516 0 0 0
11 0.98403 -0.85045 14.14127 0 0 0
12 1.33157 -1.58310 14.70538 0 0 0
13 2.32708 -1.45014 14.97209 0 0 0
14 2.22023 -0.72094 14.34175 0 0 0
15 1.75868 0.16997 14.60666 0 0 0
16 0.80214 0.23101 14.94609 0 0 0
17 -0.14184 0.19840 15.05590 0 0 0
18 -0.44200 0.21205 16.00549 0 0 0
19 0.20184 0.27411 16.78158 0 0 0
20 0.58616 0.24882 17.69026 0 0 0
21 0.70444 0.27578 18.68083 0 0 0
22 1.15053 -0.57589 19.05484 0 0 0
23 1.94512 -1.13207 18.70265 0 0 0
24 2.49160 -1.03532 19.51287 0 0 0
25 1.97910 -1.44123 20.16632 0 0 0
26 1.42673 -0.59603 20.21374 0 0 0
27 1.28198 0.08876 20.90040 0 0 0
28 1.98434 0.47231 20.42213 0 0 0
29 2.64848 1.09934 19.98226 0 0 0
30 3.12326 1.84525 20.41417 0 0 0
31 3.95883 1.33532 20.63561 0 0 0
32 4.85928 1.70824 20.39553 0 0 0
33 5.72798 2.04109 20.93233 0 0 0
34 5.80340 2.35998 20.02224 0 0 0
35 6.13605 1.63116 19.50392 0 0 0
36 5.70488 0.96431 18.95411 0 0 0
37 6.37501 0.43883 18.51920 0 0 0
38 7.21543 0.46661 17.89883 0 0 0
39 7.88189 0.99093 18.37259 0 0 0
40 8.70181 1.32729 17.88439 0 0 0
41 8.82815 2.04273 17.26805 0 0 0
42 0.03966 -0.40214 18.68134 0 0 0
43 -0.81326 -0.84392 18.79014 0 0 0
44 -1.59074 -0.97781 18.24006 0 0 0
45 -1.89018 -1.87027 18.28394 0 0 0
46 -2.88334 -2.03966 17.97183 0 0 0
47 -3.78177 -2.26289 17.71391 0 0 0
48 -4.02440 -2.69979 18.53493 0 0 0
49 -4.97791 -2.73243 18.72290 0 0 0
50 -5.65377 -3.07685 19.59450 0 0 0
51 -6.07607 -3.89365 19.17990 0 0 0
52 -6.86478 -4.25617 18.58074 0 0 0
53 -6.23312 -4.95810 18.88683 0 0 0
54 -5.60212 -5.44416 18.25984 0 0 0
55 -5.36852 -6.34054 18.17388 0 0 0
56 -5.80751 -7.02941 18.75704 0 0 0
57 -5.62156 -7.92242 18.67378 0 0 0
58 -5.00291 -8.59688 19.07907 0 0 0
59 -4.40671 -9.27299 19.53514 0 0 0
60 -4.15376 -10.21238 19.97911 0 0 0
61 -3.41843 -10.87720 20.14115 0 0 0
62 1.62516 0.38243 18.23446 0 0 0
63 1.53979 0.57989 17.28895 0 0 0
64 2.24747 0.44015 16.59214 0 0 0
65 2.58056 0.42712 15.60649 0 0 0
66 2.89514 0.81980 14.72909 0 0 0
67 3.39136 0.10261 14.24356 0 0 0
68 3.30837 -0.65923 13.61158 0 0 0
69 3.62932 -1.62601 13.26653 0 0 0
70 3.42504 -2.55869 13.61631 0 0 0
71 3.63157 -2.66393 12.64598 0 0 0
72 3.26738 -3.24163 11.91893 0 0 0
73 3.52157 -3.63553 11.02496 0 0 0
74 2.86335 -3.18469 10.43795 0 0 0
75 2.13046 -3.80802 10.39420 0 0 0
76 1.29669 -4.30828 10.58673 0 0 0
77 0.39469 -3.83451 10.48675 0 0 0
78 -0.47814 -3.54792 10.43397 0 0 0
79 -0.98633 -4.14785 9.85679 0 0 0
80 -1.84997 -4.58790 9.84737 0 0 0
81 -2.07322 -4.70901 10.82335 0 0 0
82 0.14710 0.81711 19.25511 0 0 0
83 0.16824 1.49495 19.89539 0 0 0
84 0.76695 1.68898 20.67743 0 0 0
85 -0.12744 1.92655 20.85259 0 0 0
86 -0.90379 2.31338 21.45837 0 0 0
87 -1.71322 2.52787 21.96360 0 0 0
88 -1.39754 3.34890 22.47569 0 0 0
89 -0.74183 2.84540 23.01504 0 0 0
90 0.14061 2.94021 23.45932 0 0 0
91 0.84599 3.74851 23.55587 0 0 0
92 0.91407 4.52868 24.15470 0 0 0
93 1.42366 5.45640 24.11381 0 0 0
94 1.55379 6.15959 24.80092 0 0 0
95 1.43211 6.49819 25.68254 0 0 0
96 1.18633 7.29136 25.08982 0 0 0
97 1.57708 8.02538 25.56252 0 0 0
98 2.03443 8.76713 25.91369 0 0 0
99 2.12867 8.61012 26.91685 0 0 0
100 1.91049 8.56773 27.81512 0 0 0
101 1.98112 9.04856 28.60667 0 0 0
ITEM: TIMESTEP
7000
ITEM: NUMBER OF ATOMS
101
ITEM: BOX BOUNDS pp pp pp
-1.0000000000000000e+03 1.0000000000000000e+03
-1.0000000000000000e+03 1.0000000000000000e+03
-1.0000000000000000e+03 1.0000000000000000e+03
ITEM: ATOMS id x y z ix iy iz
1 2.02105 -0.34616 9.74851 0 0 0
2 1.18643 -0.65997 9.28292 0 0 0
3 0.21497 -0.63348 9.39726 0 0 0
4 0.33335 -1.09688 10.18084 0 0 0
5 -0.14429 -0.70007 10.94277 0 0 0
6 -0.26010 -1.32935 11.73167 0 0 0
7 -0.25038 -0.38552 12.21066 0 0 0
8 0.60825 -0.60212 12.68057 0 0 0
9 1.25687 -1.21566 12.99035 0 0 0
10 0.46205 -1.88445 13.35940 0 0 0
11 0.70128 -2.74378 13.80666 0 0 0
12 1.05321 -2.79977 14.69413 0 0 0
13 2.06197 -2.76992 14.63057 0 0 0
14 1.79300 -2.36712 15.47287 0 0 0
15 1.89504 -2.11082 16.44865 0 0 0
16 1.19350 -1.58358 16.03638 0 0 0
17 0.93250 -0.88766 15.42710 0 0 0
18 1.14222 -0.24530 16.16633 0 0 0
19 0.92378 0.01234 17.11337 0 0 0
20 0.41337 -0.04240 17.90670 0 0 0
21 0.73461 -0.13788 18.86874 0 0 0
22 1.46603 -0.17043 19.56040 0 0 0
23 1.51100 0.37073 20.32206 0 0 0
24 1.54318 1.22335 20.68094 0 0 0
25 1.68750 1.03363 21.61399 0 0 0
26 1.85974 1.45673 22.44932 0 0 0
27 2.68364 1.70075 22.96371 0 0 0
28 3.46754 2.07614 22.51371 0 0 0
29 4.26026 2.21847 22.06176 0 0 0
30 4.21782 2.50000 21.09900 0 0 0
31 4.28274 2.56438 20.10120 0 0 0
32 4.62226 3.39598 19.79264 0 0 0
33 5.03963 3.77204 18.98088 0 0 0
34 5.05728 3.45984 18.06693 0 0 0
35 5.64694 3.45758 17.21756 0 0 0
36 6.00028 4.40976 17.11633 0 0 0
37 6.94103 4.60102 17.00793 0 0 0
38 7.69410 3.99658 16.65414 0 0 0
39 7.96571 4.48051 15.80321 0 0 0
40 8.60467 3.92210 16.22834 0 0 0
41 8.70148 3.64016 17.21817 0 0 0
42 0.04848 -0.58147 19.42387 0 0 0
43 -0.48867 -1.28314 18.95400 0 0 0
44 -1.24492 -2.00127 18.89280 0 0 0
45 -2.13887 -2.35944 18.99035 0 0 0
46 -3.07869 -2.83830 19.17154 0 0 0
47 -3.47201 -3.35748 19.92505 0 0 0
48 -3.97254 -4.06341 20.37876 0 0 0
49 -4.11902 -4.66185 19.52822 0 0 0
50 -3.22695 -4.85760 19.74009 0 0 0
51 -2.60669 -4.15062 19.86937 0 0 0
52 -1.91208 -4.67545 19.30076 0 0 0
53 -2.19223 -5.65274 19.10693 0 0 0
54 -2.18722 -6.04303 18.22688 0 0 0
55 -2.75268 -6.79857 18.50987 0 0 0
56 -3.58458 -6.79267 18.05321 0 0 0
57 -4.26964 -7.04616 18.67281 0 0 0
58 -5.29087 -7.24623 18.80361 0 0 0
59 -5.12592 -7.79429 18.01041 0 0 0
60 -5.51527 -7.99715 17.19512 0 0 0
61 -6.17999 -8.59143 16.83411 0 0 0
62 1.30073 -0.89538 18.81303 0 0 0
63 1.92844 -1.63836 18.57326 0 0 0
64 2.78447 -1.87539 18.05913 0 0 0
65 3.40645 -1.24741 17.48778 0 0 0
66 3.99557 -1.57886 16.75168 0 0 0
67 4.66947 -2.25866 16.52924 0 0 0
68 4.51886 -2.76434 15.73059 0 0 0
69 3.91383 -2.13186 15.29287 0 0 0
70 3.82938 -1.28405 14.79080 0 0 0
71 2.83279 -1.60482 14.79592 0 0 0
72 2.53558 -1.81465 13.83331 0 0 0
73 1.79641 -2.46438 13.49990 0 0 0
74 1.98161 -3.23245 12.92760 0 0 0
75 1.69326 -4.20381 12.76080 0 0 0
76 0.74669 -4.21312 13.15180 0 0 0
77 0.15091 -4.69380 12.61080 0 0 0
78 -0.85530 -4.65348 12.80441 0 0 0
79 -1.74073 -5.01453 12.73355 0 0 0
80 -2.43495 -5.73391 12.86227 0 0 0
81 -2.83941 -6.53458 12.84507 0 0 0
82 1.06120 0.78584 19.07234 0 0 0
83 1.38236 1.54547 19.57205 0 0 0
84 1.10606 2.34473 20.11227 0 0 0
85 1.15039 3.11083 20.66650 0 0 0
86 0.65604 3.40456 21.38217 0 0 0
87 0.27559 3.73411 22.26107 0 0 0
88 -0.06549 3.10807 23.02113 0 0 0
89 0.44750 2.69893 23.76357 0 0 0
90 0.66190 2.86196 24.71029 0 0 0
91 0.46089 3.25359 25.62720 0 0 0
92 -0.18542 3.88075 26.12780 0 0 0