bb120nuc1bl60bn5d30tot300V2

301 atoms
300 bonds
305 angles

1 atom types
1 bond types
1 angle types

-1000 1000 xlo xhi
-1000 1000 ylo yhi
-1000 1000 zlo zhi

Masses

1 1

Atoms

1	1	1	0.0	0.0	0.0	0	0	0
2	1	1	0.0	0.0	1.0	0	0	0
3	1	1	0.0	-0.49999999999999994	1.8660254037844388	0	0	0
4	1	1	0.0	0.0	2.7320508075688776	0	0	0
5	1	1	0.0	-0.49999999999999994	3.5980762113533165	0	0	0
6	1	1	0.0	0.0	4.464101615137755	0	0	0
7	1	1	0.0	-0.49999999999999994	5.330127018922194	0	0	0
8	1	1	0.0	0.0	6.196152422706632	0	0	0
9	1	1	0.0	-0.49999999999999994	7.06217782649107	0	0	0
10	1	1	0.0	0.0	7.928203230275509	0	0	0
11	1	1	0.0	-0.49999999999999994	8.794228634059948	0	0	0
12	1	1	0.0	0.0	9.660254037844387	0	0	0
13	1	1	0.0	-0.49999999999999994	10.526279441628827	0	0	0
14	1	1	0.0	0.0	11.392304845413266	0	0	0
15	1	1	0.0	-0.49999999999999994	12.258330249197705	0	0	0
16	1	1	0.0	0.0	13.124355652982144	0	0	0
17	1	1	0.0	-0.49999999999999994	13.990381056766584	0	0	0
18	1	1	0.0	0.0	14.856406460551023	0	0	0
19	1	1	0.0	-0.49999999999999994	15.722431864335462	0	0	0
20	1	1	0.0	0.0	16.5884572681199	0	0	0
21	1	1	0.0	-0.49999999999999994	17.454482671904337	0	0	0
22	1	1	0.0	0.0	18.320508075688775	0	0	0
23	1	1	0.0	-0.49999999999999994	19.186533479473212	0	0	0
24	1	1	0.0	0.0	20.05255888325765	0	0	0
25	1	1	0.0	-0.49999999999999994	20.918584287042087	0	0	0
26	1	1	0.0	0.0	21.784609690826525	0	0	0
27	1	1	0.0	-0.49999999999999994	22.650635094610962	0	0	0
28	1	1	0.0	0.0	23.5166604983954	0	0	0
29	1	1	0.0	-0.49999999999999994	24.382685902179837	0	0	0
30	1	1	0.0	0.0	25.248711305964274	0	0	0
31	1	1	0.0	-0.49999999999999994	26.114736709748712	0	0	0
32	1	1	0.0	0.0	26.98076211353315	0	0	0
33	1	1	0.0	-0.49999999999999994	27.846787517317587	0	0	0
34	1	1	0.0	0.0	28.712812921102024	0	0	0
35	1	1	0.0	-0.49999999999999994	29.578838324886462	0	0	0
36	1	1	0.0	0.0	30.4448637286709	0	0	0
37	1	1	0.0	-0.49999999999999994	31.310889132455337	0	0	0
38	1	1	0.0	0.0	32.17691453623978	0	0	0
39	1	1	0.0	-0.49999999999999994	33.04293994002422	0	0	0
40	1	1	0.0	0.0	33.90896534380866	0	0	0
41	1	1	0.0	-0.49999999999999994	34.7749907475931	0	0	0
42	1	1	0.0	0.0	35.64101615137754	0	0	0
43	1	1	0.0	-0.49999999999999994	36.50704155516198	0	0	0
44	1	1	0.0	0.0	37.373066958946424	0	0	0
45	1	1	0.0	-0.49999999999999994	38.239092362730865	0	0	0
46	1	1	0.0	0.0	39.105117766515306	0	0	0
47	1	1	0.0	-0.49999999999999994	39.97114317029975	0	0	0
48	1	1	0.0	0.0	40.83716857408419	0	0	0
49	1	1	0.0	-0.49999999999999994	41.70319397786863	0	0	0
50	1	1	0.0	0.0	42.56921938165307	0	0	0
51	1	1	0.0	-0.49999999999999994	43.43524478543751	0	0	0
52	1	1	0.0	0.0	44.30127018922195	0	0	0
53	1	1	0.0	-0.49999999999999994	45.16729559300639	0	0	0
54	1	1	0.0	0.0	46.033320996790835	0	0	0
55	1	1	0.0	-0.49999999999999994	46.899346400575276	0	0	0
56	1	1	0.0	0.0	47.76537180435972	0	0	0
57	1	1	0.0	-0.49999999999999994	48.63139720814416	0	0	0
58	1	1	0.0	0.0	49.4974226119286	0	0	0
59	1	1	0.0	-0.49999999999999994	50.36344801571304	0	0	0
60	1	1	0.0	0.0	51.22947341949748	0	0	0
61	1	1	0.0	-0.49999999999999994	52.09549882328192	0	0	0
62	1	1	-0.8473544766356592	-0.9048960722359791	52.43908223617228	0	0	0
63	1	1	-1.6947089532713164	-1.4273380631300563	52.534186163936305	0	0	0
64	1	1	-2.5420634299069738	-1.6061966411337718	53.034186163936305	0	0	0
65	1	1	-3.389417906542631	-2.128638632027849	53.12929009170033	0	0	0
66	1	1	-4.236772383178288	-2.3074972100315647	53.62929009170033	0	0	0
67	1	1	-5.084126859813946	-2.829939200925642	53.72439401946435	0	0	0
68	1	1	-5.931481336449603	-3.0087977789293574	54.22439401946435	0	0	0
69	1	1	-6.77883581308526	-3.5312397698234346	54.31949794722837	0	0	0
70	1	1	-7.626190289720918	-3.71009834782715	54.81949794722837	0	0	0
71	1	1	-8.473544766356575	-4.232540338721227	54.91460187499239	0	0	0
72	1	1	-9.320899242992233	-4.411398916724942	55.41460187499239	0	0	0
73	1	1	-10.168253719627891	-4.93384090761902	55.509705802756415	0	0	0
74	1	1	-11.01560819626355	-5.112699485622735	56.009705802756415	0	0	0
75	1	1	-11.862962672899208	-5.635141476516813	56.10480973052044	0	0	0
76	1	1	-12.710317149534866	-5.814000054520528	56.60480973052044	0	0	0
77	1	1	-13.557671626170524	-6.336442045414605	56.69991365828446	0	0	0
78	1	1	-14.405026102806183	-6.51530062341832	57.19991365828446	0	0	0
79	1	1	-15.25238057944184	-7.037742614312398	57.29501758604848	0	0	0
80	1	1	-16.0997350560775	-7.216601192316113	57.79501758604848	0	0	0
81	1	1	-16.947089532713157	-7.739043183210191	57.8901215138125	0	0	0
82	1	1	-17.794444009348815	-7.917901761213906	58.3901215138125	0	0	0
83	1	1	-18.641798485984474	-8.440343752107983	58.485225441576524	0	0	0
84	1	1	-19.489152962620132	-8.6192023301117	58.985225441576524	0	0	0
85	1	1	-20.33650743925579	-9.141644321005776	59.08032936934055	0	0	0
86	1	1	-21.18386191589145	-9.320502899009492	59.58032936934055	0	0	0
87	1	1	-22.031216392527107	-9.842944889903569	59.67543329710457	0	0	0
88	1	1	-22.878570869162765	-10.021803467907285	60.17543329710457	0	0	0
89	1	1	-23.725925345798423	-10.544245458801361	60.27053722486859	0	0	0
90	1	1	-24.57327982243408	-10.723104036805077	60.77053722486859	0	0	0
91	1	1	-25.42063429906974	-11.245546027699154	60.86564115263261	0	0	0
92	1	1	-26.267988775705398	-11.42440460570287	61.36564115263261	0	0	0
93	1	1	-27.115343252341056	-11.946846596596947	61.460745080396634	0	0	0
94	1	1	-27.962697728976714	-12.125705174600663	61.960745080396634	0	0	0
95	1	1	-28.810052205612372	-12.64814716549474	62.055849008160656	0	0	0
96	1	1	-29.65740668224803	-12.827005743498455	62.555849008160656	0	0	0
97	1	1	-30.50476115888369	-13.349447734392532	62.65095293592468	0	0	0
98	1	1	-31.352115635519347	-13.528306312396248	63.15095293592468	0	0	0
99	1	1	-32.199470112155005	-14.050748303290325	63.2460568636887	0	0	0
100	1	1	-33.04682458879066	-14.22960688129404	63.7460568636887	0	0	0
101	1	1	-33.89417906542632	-14.752048872188118	63.84116079145272	0	0	0
102	1	1	-34.74153354206198	-14.930907450191834	64.34116079145272	0	0	0
103	1	1	-35.58888801869764	-15.45334944108591	64.43626471921674	0	0	0
104	1	1	-36.436242495333296	-15.632208019089626	64.93626471921674	0	0	0
105	1	1	-37.283596971968954	-16.154650009983705	65.03136864698075	0	0	0
106	1	1	-38.13095144860461	-16.33350858798742	65.53136864698075	0	0	0
107	1	1	-38.97830592524027	-16.855950578881497	65.62647257474477	0	0	0
108	1	1	-39.82566040187593	-17.034809156885213	66.12647257474477	0	0	0
109	1	1	-40.67301487851159	-17.55725114777929	66.22157650250878	0	0	0
110	1	1	-41.520369355147245	-17.736109725783006	66.72157650250878	0	0	0
111	1	1	-42.367723831782904	-18.258551716677083	66.8166804302728	0	0	0
112	1	1	-43.21507830841856	-18.4374102946808	67.3166804302728	0	0	0
113	1	1	-44.06243278505422	-18.959852285574875	67.41178435803681	0	0	0
114	1	1	-44.90978726168988	-19.13871086357859	67.91178435803681	0	0	0
115	1	1	-45.75714173832554	-19.661152854472668	68.00688828580083	0	0	0
116	1	1	-46.604496214961195	-19.840011432476384	68.50688828580083	0	0	0
117	1	1	-47.45185069159685	-20.36245342337046	68.60199221356484	0	0	0
118	1	1	-48.29920516823251	-20.541312001374177	69.10199221356484	0	0	0
119	1	1	-49.14655964486817	-21.063753992268254	69.19709614132886	0	0	0
120	1	1	-49.99391412150383	-21.24261257027197	69.69709614132886	0	0	0
121	1	1	-50.841268598139486	-21.765054561166046	69.79220006909287	0	0	0
122	1	1	0.8473544766356599	-0.5951039277640242	52.617940814176	0	0	0
123	1	1	1.6947089532713178	-0.9386873406543872	53.02283688641198	0	0	0
124	1	1	2.5420634299069755	-0.7598287626506743	53.52283688641198	0	0	0
125	1	1	3.3894179065426338	-1.1034121755410373	53.92773295864796	0	0	0
126	1	1	4.236772383178292	-0.9245535975373245	54.42773295864796	0	0	0
127	1	1	5.08412685981395	-1.2681370104276874	54.832629030883936	0	0	0
128	1	1	5.931481336449608	-1.0892784324239746	55.332629030883936	0	0	0
129	1	1	6.778835813085267	-1.4328618453143376	55.737525103119914	0	0	0
130	1	1	7.626190289720925	-1.2540032673106247	56.237525103119914	0	0	0
131	1	1	8.473544766356582	-1.5975866802009877	56.64242117535589	0	0	0
132	1	1	9.32089924299224	-1.4187281021972749	57.14242117535589	0	0	0
133	1	1	10.168253719627899	-1.7623115150876378	57.54731724759187	0	0	0
134	1	1	11.015608196263557	-1.583452937083925	58.04731724759187	0	0	0
135	1	1	11.862962672899215	-1.927036349974288	58.45221331982785	0	0	0
136	1	1	12.710317149534873	-1.7481777719705751	58.95221331982785	0	0	0
137	1	1	13.557671626170531	-2.091761184860938	59.357109392063826	0	0	0
138	1	1	14.40502610280619	-1.9129026068572252	59.857109392063826	0	0	0
139	1	1	15.252380579441848	-2.2564860197475882	60.262005464299804	0	0	0
140	1	1	16.099735056077506	-2.0776274417438754	60.762005464299804	0	0	0
141	1	1	16.947089532713164	-2.4212108546342384	61.16690153653578	0	0	0
142	1	1	17.794444009348823	-2.2423522766305255	61.66690153653578	0	0	0
143	1	1	18.64179848598448	-2.5859356895208885	62.07179760877176	0	0	0
144	1	1	19.48915296262014	-2.4070771115171756	62.57179760877176	0	0	0
145	1	1	20.336507439255797	-2.7506605244075386	62.97669368100774	0	0	0
146	1	1	21.183861915891455	-2.5718019464038258	63.47669368100774	0	0	0
147	1	1	22.031216392527114	-2.9153853592941887	63.881589753243716	0	0	0
148	1	1	22.878570869162772	-2.736526781290476	64.38158975324372	0	0	0
149	1	1	23.72592534579843	-3.080110194180839	64.78648582547969	0	0	0
150	1	1	24.57327982243409	-2.901251616177126	65.28648582547969	0	0	0
151	1	1	25.420634299069746	-3.244835029067489	65.69138189771566	0	0	0
152	1	1	26.267988775705405	-3.065976451063776	66.19138189771566	0	0	0
153	1	1	27.115343252341063	-3.409559863954139	66.59627796995163	0	0	0
154	1	1	27.96269772897672	-3.2307012859504263	67.09627796995163	0	0	0
155	1	1	28.81005220561238	-3.5742846988407893	67.5011740421876	0	0	0
156	1	1	29.657406682248038	-3.3954261208370764	68.0011740421876	0	0	0
157	1	1	30.504761158883696	-3.7390095337274394	68.40607011442357	0	0	0
158	1	1	31.352115635519354	-3.5601509557237265	68.90607011442357	0	0	0
159	1	1	32.19947011215501	-3.9037343686140895	69.31096618665954	0	0	0
160	1	1	33.04682458879067	-3.7248757906103767	69.81096618665954	0	0	0
161	1	1	33.89417906542633	-4.06845920350074	70.21586225889551	0	0	0
162	1	1	34.74153354206199	-3.889600625497027	70.71586225889551	0	0	0
163	1	1	35.588888018697645	-4.23318403838739	71.12075833113148	0	0	0
164	1	1	36.4362424953333	-4.054325460383677	71.62075833113148	0	0	0
165	1	1	37.28359697196896	-4.39790887327404	72.02565440336745	0	0	0
166	1	1	38.13095144860462	-4.2190502952703275	72.52565440336745	0	0	0
167	1	1	38.97830592524028	-4.56263370816069	72.93055047560343	0	0	0
168	1	1	39.825660401875936	-4.383775130156978	73.43055047560343	0	0	0
169	1	1	40.673014878511594	-4.72735854304734	73.8354465478394	0	0	0
170	1	1	41.52036935514725	-4.548499965043628	74.3354465478394	0	0	0
171	1	1	42.36772383178291	-4.89208337793399	74.74034262007537	0	0	0
172	1	1	43.21507830841857	-4.713224799930278	75.24034262007537	0	0	0
173	1	1	44.06243278505423	-5.05680821282064	75.64523869231134	0	0	0
174	1	1	44.909787261689885	-4.877949634816928	76.14523869231134	0	0	0
175	1	1	45.757141738325544	-5.2215330477072905	76.55013476454731	0	0	0
176	1	1	46.6044962149612	-5.042674469703578	77.05013476454731	0	0	0
177	1	1	47.45185069159686	-5.386257882593941	77.45503083678328	0	0	0
178	1	1	48.29920516823252	-5.207399304590228	77.95503083678328	0	0	0
179	1	1	49.14655964486818	-5.550982717480591	78.35992690901925	0	0	0
180	1	1	49.993914121503835	-5.372124139476878	78.85992690901925	0	0	0
181	1	1	50.84126859813949	-5.715707552367241	79.26482298125522	0	0	0
182	1	1	-0.20652809631463825	0.3473544766356578	52.584719158466555	0	0	0
183	1	1	-0.4130561926292765	0.8365748118202901	53.43207363510221	0	0	0
184	1	1	-0.6195842889439148	1.8150154821895526	53.43207363510221	0	0	0
185	1	1	-0.8261123852585531	2.304235817374185	54.27942811173787	0	0	0
186	1	1	-1.0326404815731913	3.2826764877434473	54.27942811173787	0	0	0
187	1	1	-1.2391685778878296	3.77189682292808	55.12678258837353	0	0	0
188	1	1	-1.445696674202468	4.750337493297343	55.12678258837353	0	0	0
189	1	1	-1.6522247705171063	5.239557828481975	55.97413706500919	0	0	0
190	1	1	-1.8587528668317446	6.217998498851237	55.97413706500919	0	0	0
191	1	1	-2.0652809631463827	6.70721883403587	56.821491541644846	0	0	0
192	1	1	-2.2718090594610207	7.685659504405132	56.821491541644846	0	0	0
193	1	1	-2.478337155775659	8.174879839589764	57.668846018280504	0	0	0
194	1	1	-2.684865252090297	9.153320509959027	57.668846018280504	0	0	0
195	1	1	-2.891393348404935	9.642540845143659	58.51620049491616	0	0	0
196	1	1	-3.097921444719573	10.620981515512922	58.51620049491616	0	0	0
197	1	1	-3.304449541034211	11.110201850697553	59.36355497155182	0	0	0
198	1	1	-3.5109776373488493	12.088642521066816	59.36355497155182	0	0	0
199	1	1	-3.7175057336634874	12.577862856251448	60.21090944818748	0	0	0
200	1	1	-3.9240338299781254	13.556303526620711	60.21090944818748	0	0	0
201	1	1	-4.1305619262927635	14.045523861805343	61.05826392482314	0	0	0
202	1	1	-4.337090022607402	15.023964532174606	61.05826392482314	0	0	0
203	1	1	-4.543618118922041	15.513184867359238	61.905618401458796	0	0	0
204	1	1	-4.750146215236679	16.4916255377285	61.905618401458796	0	0	0
205	1	1	-4.956674311551318	16.980845872913132	62.752972878094454	0	0	0
206	1	1	-5.163202407865956	17.959286543282396	62.752972878094454	0	0	0
207	1	1	-5.369730504180595	18.44850687846703	63.60032735473011	0	0	0
208	1	1	-5.576258600495233	19.426947548836292	63.60032735473011	0	0	0
209	1	1	-5.782786696809872	19.916167884020926	64.44768183136577	0	0	0
210	1	1	-5.98931479312451	20.89460855439019	64.44768183136577	0	0	0
211	1	1	-6.195842889439149	21.383828889574822	65.29503630800143	0	0	0
212	1	1	-6.402370985753787	22.362269559944085	65.29503630800143	0	0	0
213	1	1	-6.608899082068426	22.85148989512872	66.14239078463709	0	0	0
214	1	1	-6.815427178383064	23.829930565497982	66.14239078463709	0	0	0
215	1	1	-7.021955274697703	24.319150900682615	66.98974526127274	0	0	0
216	1	1	-7.2284833710123415	25.29759157105188	66.98974526127274	0	0	0
217	1	1	-7.43501146732698	25.78681190623651	67.8370997379084	0	0	0
218	1	1	-7.641539563641619	26.765252576605775	67.8370997379084	0	0	0
219	1	1	-7.848067659956257	27.25447291179041	68.68445421454406	0	0	0
220	1	1	-8.054595756270896	28.23291358215967	68.68445421454406	0	0	0
221	1	1	-8.261123852585534	28.722133917344305	69.53180869117972	0	0	0
222	1	1	-8.467651948900173	29.700574587713568	69.53180869117972	0	0	0
223	1	1	-8.674180045214811	30.1897949228982	70.37916316781538	0	0	0
224	1	1	-8.88070814152945	31.168235593267465	70.37916316781538	0	0	0
225	1	1	-9.087236237844088	31.657455928452098	71.22651764445104	0	0	0
226	1	1	-9.293764334158727	32.63589659882136	71.22651764445104	0	0	0
227	1	1	-9.500292430473365	33.125116934005995	72.0738721210867	0	0	0
228	1	1	-9.706820526788004	34.103557604375254	72.0738721210867	0	0	0
229	1	1	-9.913348623102642	34.59277793955989	72.92122659772235	0	0	0
230	1	1	-10.119876719417281	35.57121860992915	72.92122659772235	0	0	0
231	1	1	-10.32640481573192	36.06043894511378	73.76858107435801	0	0	0
232	1	1	-10.532932912046558	37.03887961548304	73.76858107435801	0	0	0
233	1	1	-10.739461008361197	37.528099950667674	74.61593555099367	0	0	0
234	1	1	-10.945989104675835	38.50654062103693	74.61593555099367	0	0	0
235	1	1	-11.152517200990474	38.99576095622157	75.46329002762933	0	0	0
236	1	1	-11.359045297305112	39.974201626590826	75.46329002762933	0	0	0
237	1	1	-11.56557339361975	40.46342196177546	76.31064450426499	0	0	0
238	1	1	-11.77210148993439	41.44186263214472	76.31064450426499	0	0	0
239	1	1	-11.978629586249028	41.93108296732935	77.15799898090064	0	0	0
240	1	1	-12.185157682563666	42.90952363769861	77.15799898090064	0	0	0
241	1	1	-12.391685778878305	43.398743972883246	78.0053534575363	0	0	0
242	1	1	0.20652809631463825	-1.3473544766356578	51.60627848809729	0	0	0
243	1	1	0.4130561926292765	-1.83657481182029	50.75892401146163	0	0	0
244	1	1	0.6195842889439148	-2.8150154821895526	50.75892401146163	0	0	0
245	1	1	0.8261123852585531	-3.304235817374185	49.91156953482597	0	0	0
246	1	1	1.0326404815731913	-4.282676487743448	49.91156953482597	0	0	0
247	1	1	1.2391685778878296	-4.77189682292808	49.064215058190314	0	0	0
248	1	1	1.445696674202468	-5.750337493297343	49.064215058190314	0	0	0
249	1	1	1.6522247705171063	-6.239557828481975	48.216860581554656	0	0	0
250	1	1	1.8587528668317446	-7.217998498851237	48.216860581554656	0	0	0
251	1	1	2.0652809631463827	-7.70721883403587	47.369506104919	0	0	0
252	1	1	2.2718090594610207	-8.685659504405132	47.369506104919	0	0	0
253	1	1	2.478337155775659	-9.174879839589764	46.52215162828334	0	0	0
254	1	1	2.684865252090297	-10.153320509959027	46.52215162828334	0	0	0
255	1	1	2.891393348404935	-10.642540845143659	45.67479715164768	0	0	0
256	1	1	3.097921444719573	-11.620981515512922	45.67479715164768	0	0	0
257	1	1	3.304449541034211	-12.110201850697553	44.82744267501202	0	0	0
258	1	1	3.5109776373488493	-13.088642521066816	44.82744267501202	0	0	0
259	1	1	3.7175057336634874	-13.577862856251448	43.980088198376365	0	0	0
260	1	1	3.9240338299781254	-14.556303526620711	43.980088198376365	0	0	0
261	1	1	4.1305619262927635	-15.045523861805343	43.132733721740706	0	0	0
262	1	1	4.337090022607402	-16.023964532174606	43.132733721740706	0	0	0
263	1	1	4.543618118922041	-16.51318486735924	42.28537924510505	0	0	0
264	1	1	4.750146215236679	-17.491625537728503	42.28537924510505	0	0	0
265	1	1	4.956674311551318	-17.980845872913136	41.43802476846939	0	0	0
266	1	1	5.163202407865956	-18.9592865432824	41.43802476846939	0	0	0
267	1	1	5.369730504180595	-19.448506878467033	40.59067029183373	0	0	0
268	1	1	5.576258600495233	-20.426947548836296	40.59067029183373	0	0	0
269	1	1	5.782786696809872	-20.91616788402093	39.74331581519807	0	0	0
270	1	1	5.98931479312451	-21.894608554390192	39.74331581519807	0	0	0
271	1	1	6.195842889439149	-22.383828889574826	38.895961338562415	0	0	0
272	1	1	6.402370985753787	-23.36226955994409	38.895961338562415	0	0	0
273	1	1	6.608899082068426	-23.851489895128722	38.04860686192676	0	0	0
274	1	1	6.815427178383064	-24.829930565497985	38.04860686192676	0	0	0
275	1	1	7.021955274697703	-25.31915090068262	37.2012523852911	0	0	0
276	1	1	7.2284833710123415	-26.297591571051882	37.2012523852911	0	0	0
277	1	1	7.43501146732698	-26.786811906236515	36.35389790865544	0	0	0
278	1	1	7.641539563641619	-27.76525257660578	36.35389790865544	0	0	0
279	1	1	7.848067659956257	-28.254472911790412	35.50654343201978	0	0	0
280	1	1	8.054595756270896	-29.232913582159675	35.50654343201978	0	0	0
281	1	1	8.261123852585534	-29.72213391734431	34.659188955384124	0	0	0
282	1	1	8.467651948900173	-30.70057458771357	34.659188955384124	0	0	0
283	1	1	8.674180045214811	-31.189794922898205	33.811834478748466	0	0	0
284	1	1	8.88070814152945	-32.16823559326747	33.811834478748466	0	0	0
285	1	1	9.087236237844088	-32.6574559284521	32.96448000211281	0	0	0
286	1	1	9.293764334158727	-33.63589659882136	32.96448000211281	0	0	0
287	1	1	9.500292430473365	-34.125116934005995	32.11712552547715	0	0	0
288	1	1	9.706820526788004	-35.103557604375254	32.11712552547715	0	0	0
289	1	1	9.913348623102642	-35.59277793955989	31.26977104884149	0	0	0
290	1	1	10.119876719417281	-36.57121860992915	31.26977104884149	0	0	0
291	1	1	10.32640481573192	-37.06043894511378	30.422416572205833	0	0	0
292	1	1	10.532932912046558	-38.03887961548304	30.422416572205833	0	0	0
293	1	1	10.739461008361197	-38.528099950667674	29.575062095570175	0	0	0
294	1	1	10.945989104675835	-39.50654062103693	29.575062095570175	0	0	0
295	1	1	11.152517200990474	-39.99576095622157	28.727707618934517	0	0	0
296	1	1	11.359045297305112	-40.974201626590826	28.727707618934517	0	0	0
297	1	1	11.56557339361975	-41.46342196177546	27.88035314229886	0	0	0
298	1	1	11.77210148993439	-42.44186263214472	27.88035314229886	0	0	0
299	1	1	11.978629586249028	-42.93108296732935	27.0329986656632	0	0	0
300	1	1	12.185157682563666	-43.90952363769861	27.0329986656632	0	0	0
301	1	1	12.391685778878305	-44.398743972883246	26.185644189027542	0	0	0

Bonds

1	1	1	2
2	1	2	3
3	1	3	4
4	1	4	5
5	1	5	6
6	1	6	7
7	1	7	8
8	1	8	9
9	1	9	10
10	1	10	11
11	1	11	12
12	1	12	13
13	1	13	14
14	1	14	15
15	1	15	16
16	1	16	17
17	1	17	18
18	1	18	19
19	1	19	20
20	1	20	21
21	1	21	22
22	1	22	23
23	1	23	24
24	1	24	25
25	1	25	26
26	1	26	27
27	1	27	28
28	1	28	29
29	1	29	30
30	1	30	31
31	1	31	32
32	1	32	33
33	1	33	34
34	1	34	35
35	1	35	36
36	1	36	37
37	1	37	38
38	1	38	39
39	1	39	40
40	1	40	41
41	1	41	42
42	1	42	43
43	1	43	44
44	1	44	45
45	1	45	46
46	1	46	47
47	1	47	48
48	1	48	49
49	1	49	50
50	1	50	51
51	1	51	52
52	1	52	53
53	1	53	54
54	1	54	55
55	1	55	56
56	1	56	57
57	1	57	58
58	1	58	59
59	1	59	60
60	1	60	61
61	1	61	62
62	1	61	122
63	1	61	182
64	1	61	242
65	1	62	63
66	1	63	64
67	1	64	65
68	1	65	66
69	1	66	67
70	1	67	68
71	1	68	69
72	1	69	70
73	1	70	71
74	1	71	72
75	1	72	73
76	1	73	74
77	1	74	75
78	1	75	76
79	1	76	77
80	1	77	78
81	1	78	79
82	1	79	80
83	1	80	81
84	1	81	82
85	1	82	83
86	1	83	84
87	1	84	85
88	1	85	86
89	1	86	87
90	1	87	88
91	1	88	89
92	1	89	90
93	1	90	91
94	1	91	92
95	1	92	93
96	1	93	94
97	1	94	95
98	1	95	96
99	1	96	97
100	1	97	98
101	1	98	99
102	1	99	100
103	1	100	101
104	1	101	102
105	1	102	103
106	1	103	104
107	1	104	105
108	1	105	106
109	1	106	107
110	1	107	108
111	1	108	109
112	1	109	110
113	1	110	111
114	1	111	112
115	1	112	113
116	1	113	114
117	1	114	115
118	1	115	116
119	1	116	117
120	1	117	118
121	1	118	119
122	1	119	120
123	1	120	121
124	1	122	123
125	1	123	124
126	1	124	125
127	1	125	126
128	1	126	127
129	1	127	128
130	1	128	129
131	1	129	130
132	1	130	131
133	1	131	132
134	1	132	133
135	1	133	134
136	1	134	135
137	1	135	136
138	1	136	137
139	1	137	138
140	1	138	139
141	1	139	140
142	1	140	141
143	1	141	142
144	1	142	143
145	1	143	144
146	1	144	145
147	1	145	146
148	1	146	147
149	1	147	148
150	1	148	149
151	1	149	150
152	1	150	151
153	1	151	152
154	1	152	153
155	1	153	154
156	1	154	155
157	1	155	156
158	1	156	157
159	1	157	158
160	1	158	159
161	1	159	160
162	1	160	161
163	1	161	162
164	1	162	163
165	1	163	164
166	1	164	165
167	1	165	166
168	1	166	167
169	1	167	168
170	1	168	169
171	1	169	170
172	1	170	171
173	1	171	172
174	1	172	173
175	1	173	174
176	1	174	175
177	1	175	176
178	1	176	177
179	1	177	178
180	1	178	179
181	1	179	180
182	1	180	181
183	1	182	183
184	1	183	184
185	1	184	185
186	1	185	186
187	1	186	187
188	1	187	188
189	1	188	189
190	1	189	190
191	1	190	191
192	1	191	192
193	1	192	193
194	1	193	194
195	1	194	195
196	1	195	196
197	1	196	197
198	1	197	198
199	1	198	199
200	1	199	200
201	1	200	201
202	1	201	202
203	1	202	203
204	1	203	204
205	1	204	205
206	1	205	206
207	1	206	207
208	1	207	208
209	1	208	209
210	1	209	210
211	1	210	211
212	1	211	212
213	1	212	213
214	1	213	214
215	1	214	215
216	1	215	216
217	1	216	217
218	1	217	218
219	1	218	219
220	1	219	220
221	1	220	221
222	1	221	222
223	1	222	223
224	1	223	224
225	1	224	225
226	1	225	226
227	1	226	227
228	1	227	228
229	1	228	229
230	1	229	230
231	1	230	231
232	1	231	232
233	1	232	233
234	1	233	234
235	1	234	235
236	1	235	236
237	1	236	237
238	1	237	238
239	1	238	239
240	1	239	240
241	1	240	241
242	1	242	243
243	1	243	244
244	1	244	245
245	1	245	246
246	1	246	247
247	1	247	248
248	1	248	249
249	1	249	250
250	1	250	251
251	1	251	252
252	1	252	253
253	1	253	254
254	1	254	255
255	1	255	256
256	1	256	257
257	1	257	258
258	1	258	259
259	1	259	260
260	1	260	261
261	1	261	262
262	1	262	263
263	1	263	264
264	1	264	265
265	1	265	266
266	1	266	267
267	1	267	268
268	1	268	269
269	1	269	270
270	1	270	271
271	1	271	272
272	1	272	273
273	1	273	274
274	1	274	275
275	1	275	276
276	1	276	277
277	1	277	278
278	1	278	279
279	1	279	280
280	1	280	281
281	1	281	282
282	1	282	283
283	1	283	284
284	1	284	285
285	1	285	286
286	1	286	287
287	1	287	288
288	1	288	289
289	1	289	290
290	1	290	291
291	1	291	292
292	1	292	293
293	1	293	294
294	1	294	295
295	1	295	296
296	1	296	297
297	1	297	298
298	1	298	299
299	1	299	300
300	1	300	301

Angles

1	1	1	2	3
2	1	2	3	4
3	1	3	4	5
4	1	4	5	6
5	1	5	6	7
6	1	6	7	8
7	1	7	8	9
8	1	8	9	10
9	1	9	10	11
10	1	10	11	12
11	1	11	12	13
12	1	12	13	14
13	1	13	14	15
14	1	14	15	16
15	1	15	16	17
16	1	16	17	18
17	1	17	18	19
18	1	18	19	20
19	1	19	20	21
20	1	20	21	22
21	1	21	22	23
22	1	22	23	24
23	1	23	24	25
24	1	24	25	26
25	1	25	26	27
26	1	26	27	28
27	1	27	28	29
28	1	28	29	30
29	1	29	30	31
30	1	30	31	32
31	1	31	32	33
32	1	32	33	34
33	1	33	34	35
34	1	34	35	36
35	1	35	36	37
36	1	36	37	38
37	1	37	38	39
38	1	38	39	40
39	1	39	40	41
40	1	40	41	42
41	1	41	42	43
42	1	42	43	44
43	1	43	44	45
44	1	44	45	46
45	1	45	46	47
46	1	46	47	48
47	1	47	48	49
48	1	48	49	50
49	1	49	50	51
50	1	50	51	52
51	1	51	52	53
52	1	52	53	54
53	1	53	54	55
54	1	54	55	56
55	1	55	56	57
56	1	56	57	58
57	1	57	58	59
58	1	58	59	60
59	1	59	60	61
60	1	60	61	62
61	1	60	61	122
62	1	60	61	182
63	1	60	61	242
64	1	61	62	63
65	1	61	122	123
66	1	61	182	183
67	1	61	242	243
68	1	62	61	122
69	1	62	61	182
70	1	62	61	242
71	1	62	63	64
72	1	63	64	65
73	1	64	65	66
74	1	65	66	67
75	1	66	67	68
76	1	67	68	69
77	1	68	69	70
78	1	69	70	71
79	1	70	71	72
80	1	71	72	73
81	1	72	73	74
82	1	73	74	75
83	1	74	75	76
84	1	75	76	77
85	1	76	77	78
86	1	77	78	79
87	1	78	79	80
88	1	79	80	81
89	1	80	81	82
90	1	81	82	83
91	1	82	83	84
92	1	83	84	85
93	1	84	85	86
94	1	85	86	87
95	1	86	87	88
96	1	87	88	89
97	1	88	89	90
98	1	89	90	91
99	1	90	91	92
100	1	91	92	93
101	1	92	93	94
102	1	93	94	95
103	1	94	95	96
104	1	95	96	97
105	1	96	97	98
106	1	97	98	99
107	1	98	99	100
108	1	99	100	101
109	1	100	101	102
110	1	101	102	103
111	1	102	103	104
112	1	103	104	105
113	1	104	105	106
114	1	105	106	107
115	1	106	107	108
116	1	107	108	109
117	1	108	109	110
118	1	109	110	111
119	1	110	111	112
120	1	111	112	113
121	1	112	113	114
122	1	113	114	115
123	1	114	115	116
124	1	115	116	117
125	1	116	117	118
126	1	117	118	119
127	1	118	119	120
128	1	119	120	121
129	1	122	61	182
130	1	122	61	242
131	1	122	123	124
132	1	123	124	125
133	1	124	125	126
134	1	125	126	127
135	1	126	127	128
136	1	127	128	129
137	1	128	129	130
138	1	129	130	131
139	1	130	131	132
140	1	131	132	133
141	1	132	133	134
142	1	133	134	135
143	1	134	135	136
144	1	135	136	137
145	1	136	137	138
146	1	137	138	139
147	1	138	139	140
148	1	139	140	141
149	1	140	141	142
150	1	141	142	143
151	1	142	143	144
152	1	143	144	145
153	1	144	145	146
154	1	145	146	147
155	1	146	147	148
156	1	147	148	149
157	1	148	149	150
158	1	149	150	151
159	1	150	151	152
160	1	151	152	153
161	1	152	153	154
162	1	153	154	155
163	1	154	155	156
164	1	155	156	157
165	1	156	157	158
166	1	157	158	159
167	1	158	159	160
168	1	159	160	161
169	1	160	161	162
170	1	161	162	163
171	1	162	163	164
172	1	163	164	165
173	1	164	165	166
174	1	165	166	167
175	1	166	167	168
176	1	167	168	169
177	1	168	169	170
178	1	169	170	171
179	1	170	171	172
180	1	171	172	173
181	1	172	173	174
182	1	173	174	175
183	1	174	175	176
184	1	175	176	177
185	1	176	177	178
186	1	177	178	179
187	1	178	179	180
188	1	179	180	181
189	1	182	61	242
190	1	182	183	184
191	1	183	184	185
192	1	184	185	186
193	1	185	186	187
194	1	186	187	188
195	1	187	188	189
196	1	188	189	190
197	1	189	190	191
198	1	190	191	192
199	1	191	192	193
200	1	192	193	194
201	1	193	194	195
202	1	194	195	196
203	1	195	196	197
204	1	196	197	198
205	1	197	198	199
206	1	198	199	200
207	1	199	200	201
208	1	200	201	202
209	1	201	202	203
210	1	202	203	204
211	1	203	204	205
212	1	204	205	206
213	1	205	206	207
214	1	206	207	208
215	1	207	208	209
216	1	208	209	210
217	1	209	210	211
218	1	210	211	212
219	1	211	212	213
220	1	212	213	214
221	1	213	214	215
222	1	214	215	216
223	1	215	216	217
224	1	216	217	218
225	1	217	218	219
226	1	218	219	220
227	1	219	220	221
228	1	220	221	222
229	1	221	222	223
230	1	222	223	224
231	1	223	224	225
232	1	224	225	226
233	1	225	226	227
234	1	226	227	228
235	1	227	228	229
236	1	228	229	230
237	1	229	230	231
238	1	230	231	232
239	1	231	232	233
240	1	232	233	234
241	1	233	234	235
242	1	234	235	236
243	1	235	236	237
244	1	236	237	238
245	1	237	238	239
246	1	238	239	240
247	1	239	240	241
248	1	242	243	244
249	1	243	244	245
250	1	244	245	246
251	1	245	246	247
252	1	246	247	248
253	1	247	248	249
254	1	248	249	250
255	1	249	250	251
256	1	250	251	252
257	1	251	252	253
258	1	252	253	254
259	1	253	254	255
260	1	254	255	256
261	1	255	256	257
262	1	256	257	258
263	1	257	258	259
264	1	258	259	260
265	1	259	260	261
266	1	260	261	262
267	1	261	262	263
268	1	262	263	264
269	1	263	264	265
270	1	264	265	266
271	1	265	266	267
272	1	266	267	268
273	1	267	268	269
274	1	268	269	270
275	1	269	270	271
276	1	270	271	272
277	1	271	272	273
278	1	272	273	274
279	1	273	274	275
280	1	274	275	276
281	1	275	276	277
282	1	276	277	278
283	1	277	278	279
284	1	278	279	280
285	1	279	280	281
286	1	280	281	282
287	1	281	282	283
288	1	282	283	284
289	1	283	284	285
290	1	284	285	286
291	1	285	286	287
292	1	286	287	288
293	1	287	288	289
294	1	288	289	290
295	1	289	290	291
296	1	290	291	292
297	1	291	292	293
298	1	292	293	294
299	1	293	294	295
300	1	294	295	296
301	1	295	296	297
302	1	296	297	298
303	1	297	298	299
304	1	298	299	300
305	1	299	300	301
