bb240nuc1bl120bn5d30tot600V2

601 atoms
600 bonds
605 angles

1 atom types
1 bond types
1 angle types

-1000 1000 xlo xhi
-1000 1000 ylo yhi
-1000 1000 zlo zhi

Masses

1 1

Atoms

1	1	1	0.0	0.0	0.0	0	0	0
2	1	1	0.0	0.0	1.0	0	0	0
3	1	1	0.0	-0.49999999999999994	1.8660254037844388	0	0	0
4	1	1	0.0	0.0	2.7320508075688776	0	0	0
5	1	1	0.0	-0.49999999999999994	3.5980762113533165	0	0	0
6	1	1	0.0	0.0	4.464101615137755	0	0	0
7	1	1	0.0	-0.49999999999999994	5.330127018922194	0	0	0
8	1	1	0.0	0.0	6.196152422706632	0	0	0
9	1	1	0.0	-0.49999999999999994	7.06217782649107	0	0	0
10	1	1	0.0	0.0	7.928203230275509	0	0	0
11	1	1	0.0	-0.49999999999999994	8.794228634059948	0	0	0
12	1	1	0.0	0.0	9.660254037844387	0	0	0
13	1	1	0.0	-0.49999999999999994	10.526279441628827	0	0	0
14	1	1	0.0	0.0	11.392304845413266	0	0	0
15	1	1	0.0	-0.49999999999999994	12.258330249197705	0	0	0
16	1	1	0.0	0.0	13.124355652982144	0	0	0
17	1	1	0.0	-0.49999999999999994	13.990381056766584	0	0	0
18	1	1	0.0	0.0	14.856406460551023	0	0	0
19	1	1	0.0	-0.49999999999999994	15.722431864335462	0	0	0
20	1	1	0.0	0.0	16.5884572681199	0	0	0
21	1	1	0.0	-0.49999999999999994	17.454482671904337	0	0	0
22	1	1	0.0	0.0	18.320508075688775	0	0	0
23	1	1	0.0	-0.49999999999999994	19.186533479473212	0	0	0
24	1	1	0.0	0.0	20.05255888325765	0	0	0
25	1	1	0.0	-0.49999999999999994	20.918584287042087	0	0	0
26	1	1	0.0	0.0	21.784609690826525	0	0	0
27	1	1	0.0	-0.49999999999999994	22.650635094610962	0	0	0
28	1	1	0.0	0.0	23.5166604983954	0	0	0
29	1	1	0.0	-0.49999999999999994	24.382685902179837	0	0	0
30	1	1	0.0	0.0	25.248711305964274	0	0	0
31	1	1	0.0	-0.49999999999999994	26.114736709748712	0	0	0
32	1	1	0.0	0.0	26.98076211353315	0	0	0
33	1	1	0.0	-0.49999999999999994	27.846787517317587	0	0	0
34	1	1	0.0	0.0	28.712812921102024	0	0	0
35	1	1	0.0	-0.49999999999999994	29.578838324886462	0	0	0
36	1	1	0.0	0.0	30.4448637286709	0	0	0
37	1	1	0.0	-0.49999999999999994	31.310889132455337	0	0	0
38	1	1	0.0	0.0	32.17691453623978	0	0	0
39	1	1	0.0	-0.49999999999999994	33.04293994002422	0	0	0
40	1	1	0.0	0.0	33.90896534380866	0	0	0
41	1	1	0.0	-0.49999999999999994	34.7749907475931	0	0	0
42	1	1	0.0	0.0	35.64101615137754	0	0	0
43	1	1	0.0	-0.49999999999999994	36.50704155516198	0	0	0
44	1	1	0.0	0.0	37.373066958946424	0	0	0
45	1	1	0.0	-0.49999999999999994	38.239092362730865	0	0	0
46	1	1	0.0	0.0	39.105117766515306	0	0	0
47	1	1	0.0	-0.49999999999999994	39.97114317029975	0	0	0
48	1	1	0.0	0.0	40.83716857408419	0	0	0
49	1	1	0.0	-0.49999999999999994	41.70319397786863	0	0	0
50	1	1	0.0	0.0	42.56921938165307	0	0	0
51	1	1	0.0	-0.49999999999999994	43.43524478543751	0	0	0
52	1	1	0.0	0.0	44.30127018922195	0	0	0
53	1	1	0.0	-0.49999999999999994	45.16729559300639	0	0	0
54	1	1	0.0	0.0	46.033320996790835	0	0	0
55	1	1	0.0	-0.49999999999999994	46.899346400575276	0	0	0
56	1	1	0.0	0.0	47.76537180435972	0	0	0
57	1	1	0.0	-0.49999999999999994	48.63139720814416	0	0	0
58	1	1	0.0	0.0	49.4974226119286	0	0	0
59	1	1	0.0	-0.49999999999999994	50.36344801571304	0	0	0
60	1	1	0.0	0.0	51.22947341949748	0	0	0
61	1	1	0.0	-0.49999999999999994	52.09549882328192	0	0	0
62	1	1	0.0	0.0	52.96152422706636	0	0	0
63	1	1	0.0	-0.49999999999999994	53.827549630850804	0	0	0
64	1	1	0.0	0.0	54.693575034635245	0	0	0
65	1	1	0.0	-0.49999999999999994	55.559600438419686	0	0	0
66	1	1	0.0	0.0	56.42562584220413	0	0	0
67	1	1	0.0	-0.49999999999999994	57.29165124598857	0	0	0
68	1	1	0.0	0.0	58.15767664977301	0	0	0
69	1	1	0.0	-0.49999999999999994	59.02370205355745	0	0	0
70	1	1	0.0	0.0	59.88972745734189	0	0	0
71	1	1	0.0	-0.49999999999999994	60.75575286112633	0	0	0
72	1	1	0.0	0.0	61.62177826491077	0	0	0
73	1	1	0.0	-0.49999999999999994	62.487803668695214	0	0	0
74	1	1	0.0	0.0	63.353829072479655	0	0	0
75	1	1	0.0	-0.49999999999999994	64.21985447626409	0	0	0
76	1	1	0.0	0.0	65.08587988004852	0	0	0
77	1	1	0.0	-0.49999999999999994	65.95190528383296	0	0	0
78	1	1	0.0	0.0	66.81793068761739	0	0	0
79	1	1	0.0	-0.49999999999999994	67.68395609140183	0	0	0
80	1	1	0.0	0.0	68.54998149518626	0	0	0
81	1	1	0.0	-0.49999999999999994	69.41600689897069	0	0	0
82	1	1	0.0	0.0	70.28203230275513	0	0	0
83	1	1	0.0	-0.49999999999999994	71.14805770653956	0	0	0
84	1	1	0.0	0.0	72.014083110324	0	0	0
85	1	1	0.0	-0.49999999999999994	72.88010851410843	0	0	0
86	1	1	0.0	0.0	73.74613391789286	0	0	0
87	1	1	0.0	-0.49999999999999994	74.6121593216773	0	0	0
88	1	1	0.0	0.0	75.47818472546173	0	0	0
89	1	1	0.0	-0.49999999999999994	76.34421012924616	0	0	0
90	1	1	0.0	0.0	77.2102355330306	0	0	0
91	1	1	0.0	-0.49999999999999994	78.07626093681503	0	0	0
92	1	1	0.0	0.0	78.94228634059947	0	0	0
93	1	1	0.0	-0.49999999999999994	79.8083117443839	0	0	0
94	1	1	0.0	0.0	80.67433714816833	0	0	0
95	1	1	0.0	-0.49999999999999994	81.54036255195277	0	0	0
96	1	1	0.0	0.0	82.4063879557372	0	0	0
97	1	1	0.0	-0.49999999999999994	83.27241335952164	0	0	0
98	1	1	0.0	0.0	84.13843876330607	0	0	0
99	1	1	0.0	-0.49999999999999994	85.0044641670905	0	0	0
100	1	1	0.0	0.0	85.87048957087494	0	0	0
101	1	1	0.0	-0.49999999999999994	86.73651497465937	0	0	0
102	1	1	0.0	0.0	87.6025403784438	0	0	0
103	1	1	0.0	-0.49999999999999994	88.46856578222824	0	0	0
104	1	1	0.0	0.0	89.33459118601267	0	0	0
105	1	1	0.0	-0.49999999999999994	90.20061658979711	0	0	0
106	1	1	0.0	0.0	91.06664199358154	0	0	0
107	1	1	0.0	-0.49999999999999994	91.93266739736598	0	0	0
108	1	1	0.0	0.0	92.79869280115041	0	0	0
109	1	1	0.0	-0.49999999999999994	93.66471820493484	0	0	0
110	1	1	0.0	0.0	94.53074360871928	0	0	0
111	1	1	0.0	-0.49999999999999994	95.39676901250371	0	0	0
112	1	1	0.0	0.0	96.26279441628814	0	0	0
113	1	1	0.0	-0.49999999999999994	97.12881982007258	0	0	0
114	1	1	0.0	0.0	97.99484522385701	0	0	0
115	1	1	0.0	-0.49999999999999994	98.86087062764145	0	0	0
116	1	1	0.0	0.0	99.72689603142588	0	0	0
117	1	1	0.0	-0.49999999999999994	100.59292143521031	0	0	0
118	1	1	0.0	0.0	101.45894683899475	0	0	0
119	1	1	0.0	-0.49999999999999994	102.32497224277918	0	0	0
120	1	1	0.0	0.0	103.19099764656362	0	0	0
121	1	1	0.0	-0.49999999999999994	104.05702305034805	0	0	0
122	1	1	0.6007735069647943	-0.20981170412817002	104.80191361027495	0	0	0
123	1	1	1.201547013929591	-0.33094654798570305	105.59210190614678	0	0	0
124	1	1	1.8023205208943875	0.29280916808367147	106.09210190614678	0	0	0
125	1	1	2.403094027859184	0.17167432422613843	106.88229020201861	0	0	0
126	1	1	3.0038675348239807	0.795430040295513	107.38229020201861	0	0	0
127	1	1	3.6046410417887773	0.67429519643798	108.17247849789044	0	0	0
128	1	1	4.205414548753574	1.2980509125073545	108.67247849789044	0	0	0
129	1	1	4.806188055718371	1.1769160686498215	109.46266679376227	0	0	0
130	1	1	5.4069615626831675	1.800671784719196	109.96266679376227	0	0	0
131	1	1	6.007735069647964	1.679536940861663	110.7528550896341	0	0	0
132	1	1	6.608508576612761	2.3032926569310375	111.2528550896341	0	0	0
133	1	1	7.209282083577557	2.1821578130735046	112.04304338550592	0	0	0
134	1	1	7.810055590542354	2.805913529142879	112.54304338550592	0	0	0
135	1	1	8.41082909750715	2.6847786852853464	113.33323168137775	0	0	0
136	1	1	9.011602604471948	3.308534401354721	113.83323168137775	0	0	0
137	1	1	9.612376111436745	3.187399557497188	114.62341997724958	0	0	0
138	1	1	10.213149618401543	3.8111552735665626	115.12341997724958	0	0	0
139	1	1	10.81392312536634	3.6900204297090298	115.91360827312141	0	0	0
140	1	1	11.414696632331138	4.313776145778404	116.41360827312141	0	0	0
141	1	1	12.015470139295935	4.1926413019208715	117.20379656899324	0	0	0
142	1	1	12.616243646260733	4.816397017990246	117.70379656899324	0	0	0
143	1	1	13.21701715322553	4.695262174132713	118.49398486486507	0	0	0
144	1	1	13.817790660190328	5.319017890202088	118.99398486486507	0	0	0
145	1	1	14.418564167155125	5.197883046344555	119.7841731607369	0	0	0
146	1	1	15.019337674119923	5.821638762413929	120.2841731607369	0	0	0
147	1	1	15.62011118108472	5.700503918556397	121.07436145660873	0	0	0
148	1	1	16.220884688049516	6.324259634625771	121.57436145660873	0	0	0
149	1	1	16.82165819501431	6.203124790768238	122.36454975248056	0	0	0
150	1	1	17.422431701979107	6.826880506837613	122.86454975248056	0	0	0
151	1	1	18.023205208943903	6.70574566298008	123.65473804835239	0	0	0
152	1	1	18.6239787159087	7.3295013790494545	124.15473804835239	0	0	0
153	1	1	19.224752222873494	7.208366535191922	124.94492634422421	0	0	0
154	1	1	19.82552572983829	7.832122251261296	125.44492634422421	0	0	0
155	1	1	20.426299236803086	7.710987407403763	126.23511464009604	0	0	0
156	1	1	21.02707274376788	8.334743123473139	126.73511464009604	0	0	0
157	1	1	21.627846250732677	8.213608279615606	127.52530293596787	0	0	0
158	1	1	22.228619757697473	8.837363995684981	128.0253029359679	0	0	0
159	1	1	22.82939326466227	8.716229151827449	128.81549123183973	0	0	0
160	1	1	23.430166771627064	9.339984867896824	129.31549123183973	0	0	0
161	1	1	24.03094027859186	9.218850024039291	130.10567952771157	0	0	0
162	1	1	24.631713785556656	9.842605740108667	130.60567952771157	0	0	0
163	1	1	25.23248729252145	9.721470896251134	131.39586782358342	0	0	0
164	1	1	25.833260799486247	10.34522661232051	131.89586782358342	0	0	0
165	1	1	26.434034306451043	10.224091768462976	132.68605611945526	0	0	0
166	1	1	27.03480781341584	10.847847484532352	133.18605611945526	0	0	0
167	1	1	27.635581320380634	10.726712640674819	133.9762444153271	0	0	0
168	1	1	28.23635482734543	11.350468356744194	134.4762444153271	0	0	0
169	1	1	28.837128334310226	11.229333512886662	135.26643271119895	0	0	0
170	1	1	29.43790184127502	11.853089228956037	135.76643271119895	0	0	0
171	1	1	30.038675348239817	11.731954385098504	136.5566210070708	0	0	0
172	1	1	30.639448855204613	12.35571010116788	137.0566210070708	0	0	0
173	1	1	31.24022236216941	12.234575257310347	137.84680930294263	0	0	0
174	1	1	31.840995869134204	12.858330973379722	138.34680930294263	0	0	0
175	1	1	32.441769376099	12.73719612952219	139.13699759881447	0	0	0
176	1	1	33.0425428830638	13.360951845591565	139.63699759881447	0	0	0
177	1	1	33.6433163900286	13.239817001734032	140.42718589468632	0	0	0
178	1	1	34.2440898969934	13.863572717803407	140.92718589468632	0	0	0
179	1	1	34.8448634039582	13.742437873945875	141.71737419055816	0	0	0
180	1	1	35.445636910923	14.36619359001525	142.21737419055816	0	0	0
181	1	1	36.0464104178878	14.245058746157717	143.00756248643	0	0	0
182	1	1	36.6471839248526	14.868814462227093	143.50756248643	0	0	0
183	1	1	37.2479574318174	14.74767961836956	144.29775078230185	0	0	0
184	1	1	37.8487309387822	15.371435334438935	144.79775078230185	0	0	0
185	1	1	38.449504445746996	15.250300490581402	145.5879390781737	0	0	0
186	1	1	39.050277952711795	15.874056206650778	146.0879390781737	0	0	0
187	1	1	39.651051459676594	15.752921362793245	146.87812737404553	0	0	0
188	1	1	40.251824966641394	16.37667707886262	147.37812737404553	0	0	0
189	1	1	40.85259847360619	16.255542235005088	148.16831566991738	0	0	0
190	1	1	41.45337198057099	16.879297951074463	148.66831566991738	0	0	0
191	1	1	42.05414548753579	16.75816310721693	149.45850396578922	0	0	0
192	1	1	42.65491899450059	17.381918823286306	149.95850396578922	0	0	0
193	1	1	43.25569250146539	17.260783979428773	150.74869226166106	0	0	0
194	1	1	43.85646600843019	17.884539695498148	151.24869226166106	0	0	0
195	1	1	44.45723951539499	17.763404851640615	152.0388805575329	0	0	0
196	1	1	45.05801302235979	18.38716056770999	152.5388805575329	0	0	0
197	1	1	45.65878652932459	18.266025723852458	153.32906885340475	0	0	0
198	1	1	46.259560036289386	18.889781439921833	153.82906885340475	0	0	0
199	1	1	46.860333543254185	18.7686465960643	154.6192571492766	0	0	0
200	1	1	47.461107050218985	19.392402312133676	155.1192571492766	0	0	0
201	1	1	48.061880557183784	19.271267468276143	155.90944544514844	0	0	0
202	1	1	48.66265406414858	19.89502318434552	156.40944544514844	0	0	0
203	1	1	49.26342757111338	19.773888340487986	157.19963374102028	0	0	0
204	1	1	49.86420107807818	20.39764405655736	157.69963374102028	0	0	0
205	1	1	50.46497458504298	20.27650921269983	158.48982203689212	0	0	0
206	1	1	51.06574809200778	20.900264928769204	158.98982203689212	0	0	0
207	1	1	51.66652159897258	20.77913008491167	159.78001033276396	0	0	0
208	1	1	52.26729510593738	21.402885800981046	160.28001033276396	0	0	0
209	1	1	52.86806861290218	21.281750957123514	161.0701986286358	0	0	0
210	1	1	53.46884211986698	21.90550667319289	161.5701986286358	0	0	0
211	1	1	54.06961562683178	21.784371829335356	162.36038692450765	0	0	0
212	1	1	54.670389133796576	22.40812754540473	162.86038692450765	0	0	0
213	1	1	55.271162640761375	22.2869927015472	163.6505752203795	0	0	0
214	1	1	55.871936147726174	22.910748417616574	164.1505752203795	0	0	0
215	1	1	56.47270965469097	22.78961357375904	164.94076351625134	0	0	0
216	1	1	57.07348316165577	23.413369289828417	165.44076351625134	0	0	0
217	1	1	57.67425666862057	23.292234445970884	166.23095181212318	0	0	0
218	1	1	58.27503017558537	23.91599016204026	166.73095181212318	0	0	0
219	1	1	58.87580368255017	23.794855318182726	167.52114010799502	0	0	0
220	1	1	59.47657718951497	24.418611034252102	168.02114010799502	0	0	0
221	1	1	60.07735069647977	24.29747619039457	168.81132840386687	0	0	0
222	1	1	60.67812420344457	24.921231906463944	169.31132840386687	0	0	0
223	1	1	61.27889771040937	24.80009706260641	170.1015166997387	0	0	0
224	1	1	61.87967121737417	25.423852778675787	170.6015166997387	0	0	0
225	1	1	62.480444724338966	25.302717934818254	171.39170499561055	0	0	0
226	1	1	63.081218231303765	25.92647365088763	171.89170499561055	0	0	0
227	1	1	63.681991738268565	25.805338807030097	172.6818932914824	0	0	0
228	1	1	64.28276524523336	26.429094523099472	173.1818932914824	0	0	0
229	1	1	64.88353875219816	26.30795967924194	173.97208158735424	0	0	0
230	1	1	65.48431225916296	26.931715395311315	174.47208158735424	0	0	0
231	1	1	66.08508576612776	26.810580551453782	175.26226988322608	0	0	0
232	1	1	66.68585927309256	27.434336267523157	175.76226988322608	0	0	0
233	1	1	67.28663278005736	27.313201423665625	176.55245817909793	0	0	0
234	1	1	67.88740628702216	27.936957139735	177.05245817909793	0	0	0
235	1	1	68.48817979398696	27.815822295877467	177.84264647496977	0	0	0
236	1	1	69.08895330095176	28.439578011946843	178.34264647496977	0	0	0
237	1	1	69.68972680791656	28.31844316808931	179.1328347708416	0	0	0
238	1	1	70.29050031488136	28.942198884158685	179.6328347708416	0	0	0
239	1	1	70.89127382184616	28.821064040301152	180.42302306671345	0	0	0
240	1	1	71.49204732881095	29.444819756370528	180.92302306671345	0	0	0
241	1	1	72.09282083577575	29.323684912512995	181.7132113625853	0	0	0
242	1	1	-0.6007735069648028	-1.2901882958718223	104.17815789420558	0	0	0
243	1	1	-1.201547013929608	-2.0350788557987247	103.88796959833375	0	0	0
244	1	1	-1.8023205208944133	-2.658834571868093	104.38796959833375	0	0	0
245	1	1	-2.4030940278592183	-3.4037251317949955	104.09778130246193	0	0	0
246	1	1	-3.003867534824024	-4.027480847864363	104.59778130246193	0	0	0
247	1	1	-3.6046410417888293	-4.772371407791266	104.3075930065901	0	0	0
248	1	1	-4.205414548753635	-5.3961271238606345	104.8075930065901	0	0	0
249	1	1	-4.80618805571844	-6.141017683787537	104.51740471071827	0	0	0
250	1	1	-5.406961562683246	-6.764773399856906	105.01740471071827	0	0	0
251	1	1	-6.007735069648051	-7.509663959783809	104.72721641484644	0	0	0
252	1	1	-6.608508576612857	-8.133419675853176	105.22721641484644	0	0	0
253	1	1	-7.209282083577662	-8.878310235780079	104.93702811897461	0	0	0
254	1	1	-7.810055590542468	-9.502065951849447	105.43702811897461	0	0	0
255	1	1	-8.410829097507273	-10.24695651177635	105.14683982310278	0	0	0
256	1	1	-9.011602604472078	-10.870712227845718	105.64683982310278	0	0	0
257	1	1	-9.612376111436882	-11.615602787772621	105.35665152723095	0	0	0
258	1	1	-10.213149618401687	-12.23935850384199	105.85665152723095	0	0	0
259	1	1	-10.813923125366491	-12.984249063768893	105.56646323135912	0	0	0
260	1	1	-11.414696632331296	-13.60800477983826	106.06646323135912	0	0	0
261	1	1	-12.0154701392961	-14.352895339765164	105.7762749354873	0	0	0
262	1	1	-12.616243646260905	-14.976651055834532	106.2762749354873	0	0	0
263	1	1	-13.21701715322571	-15.721541615761435	105.98608663961546	0	0	0
264	1	1	-13.817790660190514	-16.345297331830803	106.48608663961546	0	0	0
265	1	1	-14.418564167155319	-17.090187891757704	106.19589834374364	0	0	0
266	1	1	-15.019337674120123	-17.713943607827073	106.69589834374364	0	0	0
267	1	1	-15.620111181084928	-18.458834167753974	106.4057100478718	0	0	0
268	1	1	-16.220884688049733	-19.082589883823342	106.9057100478718	0	0	0
269	1	1	-16.82165819501454	-19.827480443750243	106.61552175199998	0	0	0
270	1	1	-17.422431701979345	-20.45123615981961	107.11552175199998	0	0	0
271	1	1	-18.02320520894415	-21.196126719746513	106.82533345612815	0	0	0
272	1	1	-18.623978715908958	-21.81988243581588	107.32533345612815	0	0	0
273	1	1	-19.224752222873764	-22.564772995742782	107.03514516025632	0	0	0
274	1	1	-19.82552572983857	-23.18852871181215	107.53514516025632	0	0	0
275	1	1	-20.426299236803377	-23.93341927173905	107.24495686438449	0	0	0
276	1	1	-21.027072743768183	-24.55717498780842	107.74495686438449	0	0	0
277	1	1	-21.62784625073299	-25.30206554773532	107.45476856851266	0	0	0
278	1	1	-22.228619757697796	-25.92582126380469	107.95476856851266	0	0	0
279	1	1	-22.829393264662603	-26.67071182373159	107.66458027264083	0	0	0
280	1	1	-23.43016677162741	-27.29446753980096	108.16458027264083	0	0	0
281	1	1	-24.030940278592215	-28.03935809972786	107.874391976769	0	0	0
282	1	1	-24.63171378555702	-28.663113815797228	108.374391976769	0	0	0
283	1	1	-25.232487292521828	-29.40800437572413	108.08420368089718	0	0	0
284	1	1	-25.833260799486634	-30.031760091793497	108.58420368089718	0	0	0
285	1	1	-26.43403430645144	-30.7766506517204	108.29401538502535	0	0	0
286	1	1	-27.034807813416247	-31.400406367789767	108.79401538502535	0	0	0
287	1	1	-27.635581320381053	-32.14529692771667	108.50382708915352	0	0	0
288	1	1	-28.23635482734586	-32.76905264378604	109.00382708915352	0	0	0
289	1	1	-28.837128334310666	-33.51394320371294	108.71363879328169	0	0	0
290	1	1	-29.437901841275472	-34.13769891978231	109.21363879328169	0	0	0
291	1	1	-30.03867534824028	-34.88258947970921	108.92345049740986	0	0	0
292	1	1	-30.639448855205085	-35.50634519577858	109.42345049740986	0	0	0
293	1	1	-31.24022236216989	-36.25123575570548	109.13326220153803	0	0	0
294	1	1	-31.840995869134698	-36.87499147177485	109.63326220153803	0	0	0
295	1	1	-32.4417693760995	-37.61988203170175	109.3430739056662	0	0	0
296	1	1	-33.04254288306431	-38.24363774777112	109.8430739056662	0	0	0
297	1	1	-33.64331639002911	-38.98852830769802	109.55288560979437	0	0	0
298	1	1	-34.24408989699392	-39.61228402376739	110.05288560979437	0	0	0
299	1	1	-34.844863403958726	-40.35717458369429	109.76269731392254	0	0	0
300	1	1	-35.44563691092353	-40.980930299763656	110.26269731392254	0	0	0
301	1	1	-36.04641041788834	-41.72582085969056	109.97250901805072	0	0	0
302	1	1	-36.647183924853145	-42.349576575759926	110.47250901805072	0	0	0
303	1	1	-37.24795743181795	-43.09446713568683	110.18232072217889	0	0	0
304	1	1	-37.84873093878276	-43.718222851756195	110.68232072217889	0	0	0
305	1	1	-38.449504445747564	-44.463113411683096	110.39213242630706	0	0	0
306	1	1	-39.05027795271237	-45.086869127752465	110.89213242630706	0	0	0
307	1	1	-39.65105145967718	-45.831759687679366	110.60194413043523	0	0	0
308	1	1	-40.25182496664198	-46.455515403748734	111.10194413043523	0	0	0
309	1	1	-40.85259847360679	-47.200405963675635	110.8117558345634	0	0	0
310	1	1	-41.453371980571596	-47.824161679745	111.3117558345634	0	0	0
311	1	1	-42.0541454875364	-48.569052239671905	111.02156753869157	0	0	0
312	1	1	-42.65491899450121	-49.19280795574127	111.52156753869157	0	0	0
313	1	1	-43.255692501466015	-49.937698515668174	111.23137924281974	0	0	0
314	1	1	-43.85646600843082	-50.56145423173754	111.73137924281974	0	0	0
315	1	1	-44.45723951539563	-51.30634479166444	111.44119094694791	0	0	0
316	1	1	-45.058013022360434	-51.93010050773381	111.94119094694791	0	0	0
317	1	1	-45.65878652932524	-52.67499106766071	111.65100265107608	0	0	0
318	1	1	-46.25956003629005	-53.29874678373008	112.15100265107608	0	0	0
319	1	1	-46.86033354325485	-54.04363734365698	111.86081435520425	0	0	0
320	1	1	-47.46110705021966	-54.66739305972635	112.36081435520425	0	0	0
321	1	1	-48.061880557184466	-55.41228361965325	112.07062605933243	0	0	0
322	1	1	-48.66265406414927	-56.03603933572262	112.57062605933243	0	0	0
323	1	1	-49.26342757111408	-56.78092989564952	112.2804377634606	0	0	0
324	1	1	-49.864201078078885	-57.40468561171889	112.7804377634606	0	0	0
325	1	1	-50.46497458504369	-58.14957617164579	112.49024946758877	0	0	0
326	1	1	-51.0657480920085	-58.77333188771516	112.99024946758877	0	0	0
327	1	1	-51.666521598973304	-59.51822244764206	112.70006117171694	0	0	0
328	1	1	-52.26729510593811	-60.14197816371143	113.20006117171694	0	0	0
329	1	1	-52.86806861290292	-60.88686872363833	112.90987287584511	0	0	0
330	1	1	-53.46884211986772	-61.5106244397077	113.40987287584511	0	0	0
331	1	1	-54.06961562683253	-62.2555149996346	113.11968457997328	0	0	0
332	1	1	-54.670389133797336	-62.87927071570397	113.61968457997328	0	0	0
333	1	1	-55.27116264076214	-63.62416127563087	113.32949628410145	0	0	0
334	1	1	-55.87193614772695	-64.24791699170024	113.82949628410145	0	0	0
335	1	1	-56.472709654691755	-64.99280755162714	113.53930798822962	0	0	0
336	1	1	-57.07348316165656	-65.6165632676965	114.03930798822962	0	0	0
337	1	1	-57.67425666862137	-66.36145382762341	113.7491196923578	0	0	0
338	1	1	-58.275030175586174	-66.98520954369278	114.2491196923578	0	0	0
339	1	1	-58.87580368255098	-67.73010010361968	113.95893139648597	0	0	0
340	1	1	-59.47657718951579	-68.35385581968904	114.45893139648597	0	0	0
341	1	1	-60.07735069648059	-69.09874637961595	114.16874310061414	0	0	0
342	1	1	-60.6781242034454	-69.72250209568531	114.66874310061414	0	0	0
343	1	1	-61.278897710410206	-70.46739265561222	114.37855480474231	0	0	0
344	1	1	-61.87967121737501	-71.09114837168158	114.87855480474231	0	0	0
345	1	1	-62.48044472433982	-71.83603893160848	114.58836650887048	0	0	0
346	1	1	-63.081218231304625	-72.45979464767785	115.08836650887048	0	0	0
347	1	1	-63.68199173826943	-73.20468520760475	114.79817821299865	0	0	0
348	1	1	-64.28276524523423	-73.82844092367412	115.29817821299865	0	0	0
349	1	1	-64.88353875219903	-74.57333148360102	115.00798991712682	0	0	0
350	1	1	-65.48431225916383	-75.19708719967039	115.50798991712682	0	0	0
351	1	1	-66.08508576612863	-75.9419777595973	115.21780162125499	0	0	0
352	1	1	-66.68585927309343	-76.56573347566666	115.71780162125499	0	0	0
353	1	1	-67.28663278005823	-77.31062403559356	115.42761332538316	0	0	0
354	1	1	-67.88740628702303	-77.93437975166293	115.92761332538316	0	0	0
355	1	1	-68.48817979398783	-78.67927031158983	115.63742502951133	0	0	0
356	1	1	-69.08895330095262	-79.3030260276592	116.13742502951133	0	0	0
357	1	1	-69.68972680791742	-80.0479165875861	115.8472367336395	0	0	0
358	1	1	-70.29050031488222	-80.67167230365547	116.3472367336395	0	0	0
359	1	1	-70.89127382184702	-81.41656286358237	116.05704843776768	0	0	0
360	1	1	-71.49204732881182	-82.04031857965174	116.55704843776768	0	0	0
361	1	1	-72.09282083577662	-82.78520913957864	116.26686014189585	0	0	0
362	1	1	0.7202510611624434	-1.1007735069647957	103.71016630437992	0	0	0
363	1	1	1.440502122324887	-1.4476302529329153	103.10939279741513	0	0	0
364	1	1	2.160753183487331	-2.141343744869157	103.10939279741513	0	0	0
365	1	1	2.881004244649774	-2.4882004908372766	102.50861929045033	0	0	0
366	1	1	3.6012553058122174	-3.1819139827735183	102.50861929045033	0	0	0
367	1	1	4.321506366974661	-3.528770728741638	101.90784578348553	0	0	0
368	1	1	5.041757428137104	-4.222484220677879	101.90784578348553	0	0	0
369	1	1	5.762008489299547	-4.569340966645999	101.30707227652073	0	0	0
370	1	1	6.482259550461991	-5.263054458582241	101.30707227652073	0	0	0
371	1	1	7.202510611624434	-5.609911204550361	100.70629876955593	0	0	0
372	1	1	7.922761672786877	-6.303624696486603	100.70629876955593	0	0	0
373	1	1	8.643012733949321	-6.650481442454723	100.10552526259113	0	0	0
374	1	1	9.363263795111765	-7.3441949343909645	100.10552526259113	0	0	0
375	1	1	10.083514856274208	-7.6910516803590845	99.50475175562633	0	0	0
376	1	1	10.803765917436651	-8.384765172295326	99.50475175562633	0	0	0
377	1	1	11.524016978599095	-8.731621918263446	98.90397824866153	0	0	0
378	1	1	12.244268039761538	-9.425335410199688	98.90397824866153	0	0	0
379	1	1	12.964519100923981	-9.772192156167808	98.30320474169673	0	0	0
380	1	1	13.684770162086425	-10.46590564810405	98.30320474169673	0	0	0
381	1	1	14.405021223248868	-10.81276239407217	97.70243123473193	0	0	0
382	1	1	15.125272284411311	-11.506475886008412	97.70243123473193	0	0	0
383	1	1	15.845523345573755	-11.853332631976532	97.10165772776713	0	0	0
384	1	1	16.5657744067362	-12.547046123912773	97.10165772776713	0	0	0
385	1	1	17.286025467898643	-12.893902869880893	96.50088422080233	0	0	0
386	1	1	18.006276529061086	-13.587616361817135	96.50088422080233	0	0	0
387	1	1	18.72652759022353	-13.934473107785255	95.90011071383753	0	0	0
388	1	1	19.446778651385973	-14.628186599721497	95.90011071383753	0	0	0
389	1	1	20.167029712548416	-14.975043345689617	95.29933720687274	0	0	0
390	1	1	20.88728077371086	-15.668756837625859	95.29933720687274	0	0	0
391	1	1	21.607531834873303	-16.01561358359398	94.69856369990794	0	0	0
392	1	1	22.327782896035746	-16.70932707553022	94.69856369990794	0	0	0
393	1	1	23.04803395719819	-17.056183821498337	94.09779019294314	0	0	0
394	1	1	23.768285018360633	-17.74989731343458	94.09779019294314	0	0	0
395	1	1	24.488536079523076	-18.0967540594027	93.49701668597834	0	0	0
396	1	1	25.20878714068552	-18.790467551338942	93.49701668597834	0	0	0
397	1	1	25.929038201847963	-19.13732429730706	92.89624317901354	0	0	0
398	1	1	26.649289263010406	-19.831037789243304	92.89624317901354	0	0	0
399	1	1	27.36954032417285	-20.177894535211422	92.29546967204874	0	0	0
400	1	1	28.089791385335293	-20.871608027147666	92.29546967204874	0	0	0
401	1	1	28.810042446497736	-21.218464773115784	91.69469616508394	0	0	0
402	1	1	29.53029350766018	-21.912178265052027	91.69469616508394	0	0	0
403	1	1	30.250544568822622	-22.259035011020146	91.09392265811914	0	0	0
404	1	1	30.970795629985066	-22.95274850295639	91.09392265811914	0	0	0
405	1	1	31.69104669114751	-23.299605248924507	90.49314915115434	0	0	0
406	1	1	32.411297752309956	-23.99331874086075	90.49314915115434	0	0	0
407	1	1	33.1315488134724	-24.34017548682887	89.89237564418954	0	0	0
408	1	1	33.85179987463484	-25.033888978765113	89.89237564418954	0	0	0
409	1	1	34.572050935797286	-25.38074572473323	89.29160213722474	0	0	0
410	1	1	35.29230199695973	-26.074459216669474	89.29160213722474	0	0	0
411	1	1	36.01255305812217	-26.421315962637593	88.69082863025994	0	0	0
412	1	1	36.732804119284616	-27.115029454573836	88.69082863025994	0	0	0
413	1	1	37.45305518044706	-27.461886200541954	88.09005512329514	0	0	0
414	1	1	38.1733062416095	-28.155599692478198	88.09005512329514	0	0	0
415	1	1	38.893557302771946	-28.502456438446316	87.48928161633035	0	0	0
416	1	1	39.61380836393439	-29.19616993038256	87.48928161633035	0	0	0
417	1	1	40.33405942509683	-29.543026676350678	86.88850810936555	0	0	0
418	1	1	41.054310486259276	-30.23674016828692	86.88850810936555	0	0	0
419	1	1	41.77456154742172	-30.58359691425504	86.28773460240075	0	0	0
420	1	1	42.49481260858416	-31.277310406191283	86.28773460240075	0	0	0
421	1	1	43.215063669746606	-31.6241671521594	85.68696109543595	0	0	0
422	1	1	43.93531473090905	-32.317880644095645	85.68696109543595	0	0	0
423	1	1	44.65556579207149	-32.66473739006376	85.08618758847115	0	0	0
424	1	1	45.375816853233935	-33.35845088200001	85.08618758847115	0	0	0
425	1	1	46.09606791439638	-33.705307627968125	84.48541408150635	0	0	0
426	1	1	46.81631897555882	-34.39902111990437	84.48541408150635	0	0	0
427	1	1	47.536570036721265	-34.74587786587249	83.88464057454155	0	0	0
428	1	1	48.25682109788371	-35.43959135780873	83.88464057454155	0	0	0
429	1	1	48.97707215904615	-35.78644810377685	83.28386706757675	0	0	0
430	1	1	49.697323220208595	-36.48016159571309	83.28386706757675	0	0	0
431	1	1	50.41757428137104	-36.82701834168121	82.68309356061195	0	0	0
432	1	1	51.13782534253348	-37.520731833617454	82.68309356061195	0	0	0
433	1	1	51.858076403695925	-37.86758857958557	82.08232005364715	0	0	0
434	1	1	52.57832746485837	-38.561302071521816	82.08232005364715	0	0	0
435	1	1	53.29857852602081	-38.908158817489934	81.48154654668235	0	0	0
436	1	1	54.018829587183255	-39.60187230942618	81.48154654668235	0	0	0
437	1	1	54.7390806483457	-39.948729055394296	80.88077303971755	0	0	0
438	1	1	55.45933170950814	-40.64244254733054	80.88077303971755	0	0	0
439	1	1	56.179582770670585	-40.98929929329866	80.27999953275275	0	0	0
440	1	1	56.89983383183303	-41.6830127852349	80.27999953275275	0	0	0
441	1	1	57.62008489299547	-42.02986953120302	79.67922602578795	0	0	0
442	1	1	58.340335954157915	-42.72358302313926	79.67922602578795	0	0	0
443	1	1	59.06058701532036	-43.07043976910738	79.07845251882316	0	0	0
444	1	1	59.7808380764828	-43.764153261043624	79.07845251882316	0	0	0
445	1	1	60.501089137645245	-44.11101000701174	78.47767901185836	0	0	0
446	1	1	61.22134019880769	-44.804723498947986	78.47767901185836	0	0	0
447	1	1	61.94159125997013	-45.151580244916104	77.87690550489356	0	0	0
448	1	1	62.661842321132575	-45.84529373685235	77.87690550489356	0	0	0
449	1	1	63.38209338229502	-46.192150482820466	77.27613199792876	0	0	0
450	1	1	64.10234444345747	-46.88586397475671	77.27613199792876	0	0	0
451	1	1	64.82259550461991	-47.23272072072483	76.67535849096396	0	0	0
452	1	1	65.54284656578236	-47.92643421266107	76.67535849096396	0	0	0
453	1	1	66.2630976269448	-48.27329095862919	76.07458498399916	0	0	0
454	1	1	66.98334868810724	-48.96700445056543	76.07458498399916	0	0	0
455	1	1	67.70359974926969	-49.31386119653355	75.47381147703436	0	0	0
456	1	1	68.42385081043213	-50.007574688469795	75.47381147703436	0	0	0
457	1	1	69.14410187159457	-50.35443143443791	74.87303797006956	0	0	0
458	1	1	69.86435293275701	-51.04814492637416	74.87303797006956	0	0	0
459	1	1	70.58460399391946	-51.395001672342275	74.27226446310476	0	0	0
460	1	1	71.3048550550819	-52.08871516427852	74.27226446310476	0	0	0
461	1	1	72.02510611624434	-52.43557191024664	73.67149095613996	0	0	0
462	1	1	72.74535717740679	-53.12928540218288	73.67149095613996	0	0	0
463	1	1	73.46560823856923	-53.476142148151	73.07071744917516	0	0	0