bb280nuc1bl140bn5d30tot700V2

701 atoms
700 bonds
705 angles

1 atom types
1 bond types
1 angle types

-1000 1000 xlo xhi
-1000 1000 ylo yhi
-1000 1000 zlo zhi

Masses

1 1

Atoms

1	1	1	0.0	0.0	0.0	0	0	0
2	1	1	0.0	0.0	1.0	0	0	0
3	1	1	0.0	-0.49999999999999994	1.8660254037844388	0	0	0
4	1	1	0.0	0.0	2.7320508075688776	0	0	0
5	1	1	0.0	-0.49999999999999994	3.5980762113533165	0	0	0
6	1	1	0.0	0.0	4.464101615137755	0	0	0
7	1	1	0.0	-0.49999999999999994	5.330127018922194	0	0	0
8	1	1	0.0	0.0	6.196152422706632	0	0	0
9	1	1	0.0	-0.49999999999999994	7.06217782649107	0	0	0
10	1	1	0.0	0.0	7.928203230275509	0	0	0
11	1	1	0.0	-0.49999999999999994	8.794228634059948	0	0	0
12	1	1	0.0	0.0	9.660254037844387	0	0	0
13	1	1	0.0	-0.49999999999999994	10.526279441628827	0	0	0
14	1	1	0.0	0.0	11.392304845413266	0	0	0
15	1	1	0.0	-0.49999999999999994	12.258330249197705	0	0	0
16	1	1	0.0	0.0	13.124355652982144	0	0	0
17	1	1	0.0	-0.49999999999999994	13.990381056766584	0	0	0
18	1	1	0.0	0.0	14.856406460551023	0	0	0
19	1	1	0.0	-0.49999999999999994	15.722431864335462	0	0	0
20	1	1	0.0	0.0	16.5884572681199	0	0	0
21	1	1	0.0	-0.49999999999999994	17.454482671904337	0	0	0
22	1	1	0.0	0.0	18.320508075688775	0	0	0
23	1	1	0.0	-0.49999999999999994	19.186533479473212	0	0	0
24	1	1	0.0	0.0	20.05255888325765	0	0	0
25	1	1	0.0	-0.49999999999999994	20.918584287042087	0	0	0
26	1	1	0.0	0.0	21.784609690826525	0	0	0
27	1	1	0.0	-0.49999999999999994	22.650635094610962	0	0	0
28	1	1	0.0	0.0	23.5166604983954	0	0	0
29	1	1	0.0	-0.49999999999999994	24.382685902179837	0	0	0
30	1	1	0.0	0.0	25.248711305964274	0	0	0
31	1	1	0.0	-0.49999999999999994	26.114736709748712	0	0	0
32	1	1	0.0	0.0	26.98076211353315	0	0	0
33	1	1	0.0	-0.49999999999999994	27.846787517317587	0	0	0
34	1	1	0.0	0.0	28.712812921102024	0	0	0
35	1	1	0.0	-0.49999999999999994	29.578838324886462	0	0	0
36	1	1	0.0	0.0	30.4448637286709	0	0	0
37	1	1	0.0	-0.49999999999999994	31.310889132455337	0	0	0
38	1	1	0.0	0.0	32.17691453623978	0	0	0
39	1	1	0.0	-0.49999999999999994	33.04293994002422	0	0	0
40	1	1	0.0	0.0	33.90896534380866	0	0	0
41	1	1	0.0	-0.49999999999999994	34.7749907475931	0	0	0
42	1	1	0.0	0.0	35.64101615137754	0	0	0
43	1	1	0.0	-0.49999999999999994	36.50704155516198	0	0	0
44	1	1	0.0	0.0	37.373066958946424	0	0	0
45	1	1	0.0	-0.49999999999999994	38.239092362730865	0	0	0
46	1	1	0.0	0.0	39.105117766515306	0	0	0
47	1	1	0.0	-0.49999999999999994	39.97114317029975	0	0	0
48	1	1	0.0	0.0	40.83716857408419	0	0	0
49	1	1	0.0	-0.49999999999999994	41.70319397786863	0	0	0
50	1	1	0.0	0.0	42.56921938165307	0	0	0
51	1	1	0.0	-0.49999999999999994	43.43524478543751	0	0	0
52	1	1	0.0	0.0	44.30127018922195	0	0	0
53	1	1	0.0	-0.49999999999999994	45.16729559300639	0	0	0
54	1	1	0.0	0.0	46.033320996790835	0	0	0
55	1	1	0.0	-0.49999999999999994	46.899346400575276	0	0	0
56	1	1	0.0	0.0	47.76537180435972	0	0	0
57	1	1	0.0	-0.49999999999999994	48.63139720814416	0	0	0
58	1	1	0.0	0.0	49.4974226119286	0	0	0
59	1	1	0.0	-0.49999999999999994	50.36344801571304	0	0	0
60	1	1	0.0	0.0	51.22947341949748	0	0	0
61	1	1	0.0	-0.49999999999999994	52.09549882328192	0	0	0
62	1	1	0.0	0.0	52.96152422706636	0	0	0
63	1	1	0.0	-0.49999999999999994	53.827549630850804	0	0	0
64	1	1	0.0	0.0	54.693575034635245	0	0	0
65	1	1	0.0	-0.49999999999999994	55.559600438419686	0	0	0
66	1	1	0.0	0.0	56.42562584220413	0	0	0
67	1	1	0.0	-0.49999999999999994	57.29165124598857	0	0	0
68	1	1	0.0	0.0	58.15767664977301	0	0	0
69	1	1	0.0	-0.49999999999999994	59.02370205355745	0	0	0
70	1	1	0.0	0.0	59.88972745734189	0	0	0
71	1	1	0.0	-0.49999999999999994	60.75575286112633	0	0	0
72	1	1	0.0	0.0	61.62177826491077	0	0	0
73	1	1	0.0	-0.49999999999999994	62.487803668695214	0	0	0
74	1	1	0.0	0.0	63.353829072479655	0	0	0
75	1	1	0.0	-0.49999999999999994	64.21985447626409	0	0	0
76	1	1	0.0	0.0	65.08587988004852	0	0	0
77	1	1	0.0	-0.49999999999999994	65.95190528383296	0	0	0
78	1	1	0.0	0.0	66.81793068761739	0	0	0
79	1	1	0.0	-0.49999999999999994	67.68395609140183	0	0	0
80	1	1	0.0	0.0	68.54998149518626	0	0	0
81	1	1	0.0	-0.49999999999999994	69.41600689897069	0	0	0
82	1	1	0.0	0.0	70.28203230275513	0	0	0
83	1	1	0.0	-0.49999999999999994	71.14805770653956	0	0	0
84	1	1	0.0	0.0	72.014083110324	0	0	0
85	1	1	0.0	-0.49999999999999994	72.88010851410843	0	0	0
86	1	1	0.0	0.0	73.74613391789286	0	0	0
87	1	1	0.0	-0.49999999999999994	74.6121593216773	0	0	0
88	1	1	0.0	0.0	75.47818472546173	0	0	0
89	1	1	0.0	-0.49999999999999994	76.34421012924616	0	0	0
90	1	1	0.0	0.0	77.2102355330306	0	0	0
91	1	1	0.0	-0.49999999999999994	78.07626093681503	0	0	0
92	1	1	0.0	0.0	78.94228634059947	0	0	0
93	1	1	0.0	-0.49999999999999994	79.8083117443839	0	0	0
94	1	1	0.0	0.0	80.67433714816833	0	0	0
95	1	1	0.0	-0.49999999999999994	81.54036255195277	0	0	0
96	1	1	0.0	0.0	82.4063879557372	0	0	0
97	1	1	0.0	-0.49999999999999994	83.27241335952164	0	0	0
98	1	1	0.0	0.0	84.13843876330607	0	0	0
99	1	1	0.0	-0.49999999999999994	85.0044641670905	0	0	0
100	1	1	0.0	0.0	85.87048957087494	0	0	0
101	1	1	0.0	-0.49999999999999994	86.73651497465937	0	0	0
102	1	1	0.0	0.0	87.6025403784438	0	0	0
103	1	1	0.0	-0.49999999999999994	88.46856578222824	0	0	0
104	1	1	0.0	0.0	89.33459118601267	0	0	0
105	1	1	0.0	-0.49999999999999994	90.20061658979711	0	0	0
106	1	1	0.0	0.0	91.06664199358154	0	0	0
107	1	1	0.0	-0.49999999999999994	91.93266739736598	0	0	0
108	1	1	0.0	0.0	92.79869280115041	0	0	0
109	1	1	0.0	-0.49999999999999994	93.66471820493484	0	0	0
110	1	1	0.0	0.0	94.53074360871928	0	0	0
111	1	1	0.0	-0.49999999999999994	95.39676901250371	0	0	0
112	1	1	0.0	0.0	96.26279441628814	0	0	0
113	1	1	0.0	-0.49999999999999994	97.12881982007258	0	0	0
114	1	1	0.0	0.0	97.99484522385701	0	0	0
115	1	1	0.0	-0.49999999999999994	98.86087062764145	0	0	0
116	1	1	0.0	0.0	99.72689603142588	0	0	0
117	1	1	0.0	-0.49999999999999994	100.59292143521031	0	0	0
118	1	1	0.0	0.0	101.45894683899475	0	0	0
119	1	1	0.0	-0.49999999999999994	102.32497224277918	0	0	0
120	1	1	0.0	0.0	103.19099764656362	0	0	0
121	1	1	0.0	-0.49999999999999994	104.05702305034805	0	0	0
122	1	1	0.0	0.0	104.92304845413248	0	0	0
123	1	1	0.0	-0.49999999999999994	105.78907385791692	0	0	0
124	1	1	0.0	0.0	106.65509926170135	0	0	0
125	1	1	0.0	-0.49999999999999994	107.52112466548579	0	0	0
126	1	1	0.0	0.0	108.38715006927022	0	0	0
127	1	1	0.0	-0.49999999999999994	109.25317547305465	0	0	0
128	1	1	0.0	0.0	110.11920087683909	0	0	0
129	1	1	0.0	-0.49999999999999994	110.98522628062352	0	0	0
130	1	1	0.0	0.0	111.85125168440796	0	0	0
131	1	1	0.0	-0.49999999999999994	112.71727708819239	0	0	0
132	1	1	0.0	0.0	113.58330249197682	0	0	0
133	1	1	0.0	-0.49999999999999994	114.44932789576126	0	0	0
134	1	1	0.0	0.0	115.31535329954569	0	0	0
135	1	1	0.0	-0.49999999999999994	116.18137870333013	0	0	0
136	1	1	0.0	0.0	117.04740410711456	0	0	0
137	1	1	0.0	-0.49999999999999994	117.913429510899	0	0	0
138	1	1	0.0	0.0	118.77945491468343	0	0	0
139	1	1	0.0	-0.49999999999999994	119.64548031846786	0	0	0
140	1	1	0.0	0.0	120.5115057222523	0	0	0
141	1	1	0.0	-0.49999999999999994	121.37753112603673	0	0	0
142	1	1	-0.653404644335207	-0.2577634937645509	122.09473670730894	0	0	0
143	1	1	-1.3068092886704166	-0.4065833162767728	122.8369732135444	0	0	0
144	1	1	-1.960213933005626	0.16180244248322373	123.3369732135444	0	0	0
145	1	1	-2.613618577340836	0.012982619971001835	124.07920971977985	0	0	0
146	1	1	-3.2670232216760455	0.5813683787309983	124.57920971977985	0	0	0
147	1	1	-3.9204278660112553	0.4325485562187764	125.32144622601531	0	0	0
148	1	1	-4.573832510346465	1.0009343149787728	125.82144622601531	0	0	0
149	1	1	-5.227237154681674	0.8521144924665509	126.56368273225077	0	0	0
150	1	1	-5.8806417990168836	1.4205002512265474	127.06368273225077	0	0	0
151	1	1	-6.534046443352093	1.2716804287143255	127.80591923848623	0	0	0
152	1	1	-7.187451087687302	1.840066187474322	128.30591923848624	0	0	0
153	1	1	-7.840855732022511	1.6912463649621001	129.0481557447217	0	0	0
154	1	1	-8.49426037635772	2.2596321237220964	129.5481557447217	0	0	0
155	1	1	-9.14766502069293	2.1108123012098745	130.29039225095715	0	0	0
156	1	1	-9.80106966502814	2.6791980599698713	130.79039225095715	0	0	0
157	1	1	-10.454474309363349	2.5303782374576493	131.5326287571926	0	0	0
158	1	1	-11.107878953698558	3.098763996217646	132.0326287571926	0	0	0
159	1	1	-11.761283598033767	2.949944173705424	132.77486526342807	0	0	0
160	1	1	-12.414688242368976	3.518329932465421	133.27486526342807	0	0	0
161	1	1	-13.068092886704186	3.369510109953199	134.01710176966353	0	0	0
162	1	1	-13.721497531039395	3.9378958687131957	134.51710176966353	0	0	0
163	1	1	-14.374902175374604	3.789076046200974	135.25933827589898	0	0	0
164	1	1	-15.028306819709814	4.357461804960971	135.75933827589898	0	0	0
165	1	1	-15.681711464045023	4.208641982448749	136.50157478213444	0	0	0
166	1	1	-16.335116108380234	4.777027741208745	137.00157478213444	0	0	0
167	1	1	-16.988520752715445	4.628207918696524	137.7438112883699	0	0	0
168	1	1	-17.641925397050656	5.19659367745652	138.2438112883699	0	0	0
169	1	1	-18.295330041385867	5.047773854944299	138.98604779460535	0	0	0
170	1	1	-18.948734685721078	5.616159613704295	139.48604779460535	0	0	0
171	1	1	-19.60213933005629	5.467339791192074	140.2282843008408	0	0	0
172	1	1	-20.2555439743915	6.03572554995207	140.7282843008408	0	0	0
173	1	1	-20.90894861872671	5.886905727439848	141.47052080707627	0	0	0
174	1	1	-21.562353263061922	6.455291486199845	141.97052080707627	0	0	0
175	1	1	-22.215757907397133	6.306471663687623	142.71275731331173	0	0	0
176	1	1	-22.869162551732344	6.8748574224476195	143.21275731331173	0	0	0
177	1	1	-23.522567196067556	6.726037599935398	143.95499381954718	0	0	0
178	1	1	-24.175971840402767	7.294423358695394	144.45499381954718	0	0	0
179	1	1	-24.829376484737978	7.145603536183173	145.19723032578264	0	0	0
180	1	1	-25.48278112907319	7.713989294943169	145.69723032578264	0	0	0
181	1	1	-26.1361857734084	7.565169472430948	146.4394668320181	0	0	0
182	1	1	-26.78959041774361	8.133555231190945	146.9394668320181	0	0	0
183	1	1	-27.442995062078822	7.9847354086787234	147.68170333825356	0	0	0
184	1	1	-28.096399706414033	8.55312116743872	148.18170333825356	0	0	0
185	1	1	-28.749804350749244	8.404301344926498	148.923939844489	0	0	0
186	1	1	-29.403208995084455	8.972687103686495	149.423939844489	0	0	0
187	1	1	-30.056613639419666	8.823867281174273	150.16617635072447	0	0	0
188	1	1	-30.710018283754877	9.39225303993427	150.66617635072447	0	0	0
189	1	1	-31.36342292809009	9.243433217422048	151.40841285695993	0	0	0
190	1	1	-32.0168275724253	9.811818976182044	151.90841285695993	0	0	0
191	1	1	-32.67023221676051	9.662999153669823	152.65064936319538	0	0	0
192	1	1	-33.32363686109572	10.231384912429819	153.15064936319538	0	0	0
193	1	1	-33.97704150543093	10.082565089917598	153.89288586943084	0	0	0
194	1	1	-34.63044614976614	10.650950848677594	154.39288586943084	0	0	0
195	1	1	-35.283850794101355	10.502131026165372	155.1351223756663	0	0	0
196	1	1	-35.937255438436566	11.070516784925369	155.6351223756663	0	0	0
197	1	1	-36.59066008277178	10.921696962413147	156.37735888190176	0	0	0
198	1	1	-37.24406472710699	11.490082721173144	156.87735888190176	0	0	0
199	1	1	-37.8974693714422	11.341262898660922	157.6195953881372	0	0	0
200	1	1	-38.55087401577741	11.909648657420918	158.1195953881372	0	0	0
201	1	1	-39.20427866011262	11.760828834908697	158.86183189437267	0	0	0
202	1	1	-39.85768330444783	12.329214593668693	159.36183189437267	0	0	0
203	1	1	-40.51108794878304	12.180394771156472	160.10406840060813	0	0	0
204	1	1	-41.164492593118254	12.748780529916468	160.60406840060813	0	0	0
205	1	1	-41.817897237453465	12.599960707404247	161.34630490684359	0	0	0
206	1	1	-42.471301881788676	13.168346466164243	161.84630490684359	0	0	0
207	1	1	-43.12470652612389	13.019526643652021	162.58854141307904	0	0	0
208	1	1	-43.7781111704591	13.587912402412018	163.08854141307904	0	0	0
209	1	1	-44.43151581479431	13.439092579899796	163.8307779193145	0	0	0
210	1	1	-45.08492045912952	14.007478338659793	164.3307779193145	0	0	0
211	1	1	-45.73832510346473	13.858658516147571	165.07301442554996	0	0	0
212	1	1	-46.39172974779994	14.427044274907567	165.57301442554996	0	0	0
213	1	1	-47.045134392135154	14.278224452395346	166.3152509317854	0	0	0
214	1	1	-47.698539036470365	14.846610211155342	166.8152509317854	0	0	0
215	1	1	-48.351943680805576	14.69779038864312	167.55748743802087	0	0	0
216	1	1	-49.00534832514079	15.266176147403117	168.05748743802087	0	0	0
217	1	1	-49.658752969476	15.117356324890896	168.79972394425633	0	0	0
218	1	1	-50.31215761381121	15.685742083650892	169.29972394425633	0	0	0
219	1	1	-50.96556225814642	15.53692226113867	170.04196045049179	0	0	0
220	1	1	-51.61896690248163	16.10530801989867	170.54196045049179	0	0	0
221	1	1	-52.27237154681684	15.956488197386447	171.28419695672724	0	0	0
222	1	1	-52.92577619115205	16.524873956146443	171.78419695672724	0	0	0
223	1	1	-53.579180835487264	16.37605413363422	172.5264334629627	0	0	0
224	1	1	-54.232585479822475	16.944439892394218	173.0264334629627	0	0	0
225	1	1	-54.885990124157686	16.795620069881995	173.76866996919816	0	0	0
226	1	1	-55.5393947684929	17.364005828641993	174.26866996919816	0	0	0
227	1	1	-56.19279941282811	17.21518600612977	175.01090647543361	0	0	0
228	1	1	-56.84620405716332	17.783571764889768	175.51090647543361	0	0	0
229	1	1	-57.49960870149853	17.634751942377545	176.25314298166907	0	0	0
230	1	1	-58.15301334583374	18.203137701137543	176.75314298166907	0	0	0
231	1	1	-58.80641799016895	18.05431787862532	177.49537948790453	0	0	0
232	1	1	-59.459822634504164	18.622703637385317	177.99537948790453	0	0	0
233	1	1	-60.113227278839375	18.473883814873094	178.73761599414	0	0	0
234	1	1	-60.766631923174586	19.042269573633092	179.23761599414	0	0	0
235	1	1	-61.4200365675098	18.89344975112087	179.97985250037544	0	0	0
236	1	1	-62.07344121184501	19.461835509880867	180.47985250037544	0	0	0
237	1	1	-62.72684585618022	19.313015687368644	181.2220890066109	0	0	0
238	1	1	-63.38025050051543	19.881401446128642	181.7220890066109	0	0	0
239	1	1	-64.03365514485064	19.73258162361642	182.46432551284636	0	0	0
240	1	1	-64.68705978918585	20.300967382376417	182.96432551284636	0	0	0
241	1	1	-65.34046443352106	20.152147559864193	183.70656201908182	0	0	0
242	1	1	-65.99386907785627	20.72053331862419	184.20656201908182	0	0	0
243	1	1	-66.64727372219149	20.57171349611197	184.94879852531727	0	0	0
244	1	1	-67.3006783665267	21.140099254871966	185.44879852531727	0	0	0
245	1	1	-67.95408301086191	20.991279432359743	186.19103503155273	0	0	0
246	1	1	-68.60748765519712	21.55966519111974	186.69103503155273	0	0	0
247	1	1	-69.26089229953233	21.410845368607518	187.4332715377882	0	0	0
248	1	1	-69.91429694386754	21.979231127367516	187.9332715377882	0	0	0
249	1	1	-70.56770158820275	21.830411304855293	188.67550804402364	0	0	0
250	1	1	-71.22110623253796	22.39879706361529	189.17550804402364	0	0	0
251	1	1	-71.87451087687317	22.249977241103068	189.9177445502591	0	0	0
252	1	1	-72.52791552120839	22.818362999863066	190.4177445502591	0	0	0
253	1	1	-73.1813201655436	22.669543177350842	191.15998105649456	0	0	0
254	1	1	-73.83472480987881	23.23792893611084	191.65998105649456	0	0	0
255	1	1	-74.48812945421402	23.089109113598617	192.40221756273002	0	0	0
256	1	1	-75.14153409854923	23.657494872358615	192.90221756273002	0	0	0
257	1	1	-75.79493874288444	23.508675049846392	193.64445406896547	0	0	0
258	1	1	-76.44834338721965	24.07706080860639	194.14445406896547	0	0	0
259	1	1	-77.10174803155486	23.928240986094167	194.88669057520093	0	0	0
260	1	1	-77.75515267589007	24.496626744854165	195.38669057520093	0	0	0
261	1	1	-78.40855732022528	24.34780692234194	196.1289270814364	0	0	0
262	1	1	-79.0619619645605	24.91619268110194	196.6289270814364	0	0	0
263	1	1	-79.7153666088957	24.767372858589717	197.37116358767184	0	0	0
264	1	1	-80.36877125323092	25.335758617349715	197.87116358767184	0	0	0
265	1	1	-81.02217589756613	25.18693879483749	198.6134000939073	0	0	0
266	1	1	-81.67558054190134	25.75532455359749	199.1134000939073	0	0	0
267	1	1	-82.32898518623655	25.606504731085266	199.85563660014276	0	0	0
268	1	1	-82.98238983057176	26.174890489845264	200.35563660014276	0	0	0
269	1	1	-83.63579447490697	26.02607066733304	201.09787310637822	0	0	0
270	1	1	-84.28919911924218	26.59445642609304	201.59787310637822	0	0	0
271	1	1	-84.9426037635774	26.445636603580816	202.34010961261367	0	0	0
272	1	1	-85.5960084079126	27.014022362340814	202.84010961261367	0	0	0
273	1	1	-86.24941305224782	26.86520253982859	203.58234611884913	0	0	0
274	1	1	-86.90281769658303	27.43358829858859	204.08234611884913	0	0	0
275	1	1	-87.55622234091824	27.284768476076366	204.8245826250846	0	0	0
276	1	1	-88.20962698525345	27.853154234836364	205.3245826250846	0	0	0
277	1	1	-88.86303162958866	27.70433441232414	206.06681913132005	0	0	0
278	1	1	-89.51643627392387	28.27272017108414	206.56681913132005	0	0	0
279	1	1	-90.16984091825908	28.123900348571915	207.3090556375555	0	0	0
280	1	1	-90.8232455625943	28.692286107331913	207.8090556375555	0	0	0
281	1	1	-91.4766502069295	28.54346628481969	208.55129214379096	0	0	0
282	1	1	0.6534046443351876	-1.2422365062354677	121.52635094854894	0	0	0
283	1	1	1.3068092886703782	-1.9594420875076966	121.28411444231347	0	0	0
284	1	1	1.9602139330055686	-2.527827846267717	121.78411444231347	0	0	0
285	1	1	2.613618577340759	-3.245033427539946	121.541877936078	0	0	0
286	1	1	3.2670232216759496	-3.8134191862999662	122.041877936078	0	0	0
287	1	1	3.9204278660111402	-4.530624767572196	121.79964142984252	0	0	0
288	1	1	4.573832510346331	-5.099010526332216	122.29964142984252	0	0	0
289	1	1	5.2272371546815215	-5.816216107604445	122.05740492360705	0	0	0
290	1	1	5.880641799016712	-6.3846018663644655	122.55740492360705	0	0	0
291	1	1	6.534046443351903	-7.101807447636695	122.31516841737158	0	0	0
292	1	1	7.187451087687093	-7.670193206396715	122.81516841737158	0	0	0
293	1	1	7.840855732022284	-8.387398787668944	122.57293191113611	0	0	0
294	1	1	8.494260376357474	-8.955784546428966	123.07293191113611	0	0	0
295	1	1	9.147665020692664	-9.672990127701194	122.83069540490064	0	0	0
296	1	1	9.801069665027853	-10.241375886461215	123.33069540490064	0	0	0
297	1	1	10.454474309363043	-10.958581467733444	123.08845889866517	0	0	0
298	1	1	11.107878953698233	-11.526967226493465	123.58845889866517	0	0	0
299	1	1	11.761283598033422	-12.244172807765693	123.3462223924297	0	0	0
300	1	1	12.414688242368612	-12.812558566525714	123.8462223924297	0	0	0
301	1	1	13.068092886703802	-13.529764147797943	123.60398588619422	0	0	0
302	1	1	13.721497531038992	-14.098149906557964	124.10398588619422	0	0	0
303	1	1	14.374902175374181	-14.815355487830193	123.86174937995875	0	0	0
304	1	1	15.028306819709371	-15.383741246590214	124.36174937995875	0	0	0
305	1	1	15.681711464044561	-16.100946827862444	124.11951287372328	0	0	0
306	1	1	16.33511610837975	-16.669332586622463	124.61951287372328	0	0	0
307	1	1	16.98852075271494	-17.38653816789469	124.37727636748781	0	0	0
308	1	1	17.64192539705013	-17.95492392665471	124.87727636748781	0	0	0
309	1	1	18.29533004138532	-18.67212950792694	124.63503986125234	0	0	0
310	1	1	18.94873468572051	-19.24051526668696	125.13503986125234	0	0	0
311	1	1	19.6021393300557	-19.957720847959187	124.89280335501687	0	0	0
312	1	1	20.25554397439089	-20.526106606719207	125.39280335501687	0	0	0
313	1	1	20.90894861872608	-21.243312187991435	125.1505668487814	0	0	0
314	1	1	21.56235326306127	-21.811697946751455	125.6505668487814	0	0	0
315	1	1	22.21575790739646	-22.528903528023683	125.40833034254592	0	0	0
316	1	1	22.869162551731648	-23.097289286783703	125.90833034254592	0	0	0
317	1	1	23.522567196066838	-23.81449486805593	125.66609383631045	0	0	0
318	1	1	24.175971840402028	-24.38288062681595	126.16609383631045	0	0	0
319	1	1	24.829376484737217	-25.10008620808818	125.92385733007498	0	0	0
320	1	1	25.482781129072407	-25.668471966848198	126.42385733007498	0	0	0
321	1	1	26.136185773407597	-26.385677548120427	126.18162082383951	0	0	0
322	1	1	26.789590417742787	-26.954063306880446	126.68162082383951	0	0	0
323	1	1	27.442995062077976	-27.671268888152674	126.43938431760404	0	0	0
324	1	1	28.096399706413166	-28.239654646912694	126.93938431760404	0	0	0
325	1	1	28.749804350748356	-28.956860228184922	126.69714781136857	0	0	0
326	1	1	29.403208995083546	-29.52524598694494	127.19714781136857	0	0	0
327	1	1	30.056613639418735	-30.24245156821717	126.9549113051331	0	0	0
328	1	1	30.710018283753925	-30.81083732697719	127.4549113051331	0	0	0
329	1	1	31.363422928089115	-31.528042908249418	127.21267479889762	0	0	0
330	1	1	32.016827572424305	-32.09642866700944	127.71267479889762	0	0	0
331	1	1	32.670232216759494	-32.81363424828167	127.47043829266215	0	0	0
332	1	1	33.323636861094684	-33.382020007041696	127.97043829266215	0	0	0
333	1	1	33.977041505429874	-34.09922558831393	127.72820178642668	0	0	0
334	1	1	34.63044614976506	-34.66761134707395	128.22820178642667	0	0	0
335	1	1	35.28385079410025	-35.38481692834618	127.9859652801912	0	0	0
336	1	1	35.93725543843544	-35.953202687106206	128.48596528019118	0	0	0
337	1	1	36.59066008277063	-36.67040826837844	128.2437287739557	0	0	0
338	1	1	37.24406472710582	-37.23879402713846	128.7437287739557	0	0	0
339	1	1	37.89746937144101	-37.95599960841069	128.5014922677202	0	0	0
340	1	1	38.5508740157762	-38.524385367170716	129.0014922677202	0	0	0
341	1	1	39.20427866011139	-39.24159094844295	128.75925576148472	0	0	0
342	1	1	39.85768330444658	-39.80997670720297	129.25925576148472	0	0	0
343	1	1	40.51108794878177	-40.5271822884752	129.01701925524924	0	0	0
344	1	1	41.16449259311696	-41.095568047235226	129.51701925524924	0	0	0
345	1	1	41.81789723745215	-41.81277362850746	129.27478274901375	0	0	0
346	1	1	42.47130188178734	-42.38115938726748	129.77478274901375	0	0	0
347	1	1	43.12470652612253	-43.09836496853971	129.53254624277827	0	0	0
348	1	1	43.77811117045772	-43.666750727299736	130.03254624277827	0	0	0
349	1	1	44.43151581479291	-44.38395630857197	129.79030973654278	0	0	0
350	1	1	45.0849204591281	-44.95234206733199	130.29030973654278	0	0	0
351	1	1	45.73832510346329	-45.66954764860422	130.0480732303073	0	0	0
352	1	1	46.39172974779848	-46.237933407364245	130.5480732303073	0	0	0
353	1	1	47.04513439213367	-46.95513898863648	130.3058367240718	0	0	0
354	1	1	47.69853903646886	-47.5235247473965	130.8058367240718	0	0	0
355	1	1	48.35194368080405	-48.24073032866873	130.56360021783632	0	0	0
356	1	1	49.00534832513924	-48.809116087428755	131.06360021783632	0	0	0
357	1	1	49.65875296947443	-49.52632166870099	130.82136371160084	0	0	0
358	1	1	50.31215761380962	-50.09470742746101	131.32136371160084	0	0	0
359	1	1	50.96556225814481	-50.81191300873324	131.07912720536535	0	0	0
360	1	1	51.61896690248	-51.380298767493265	131.57912720536535	0	0	0
361	1	1	52.27237154681519	-52.0975043487655	131.33689069912987	0	0	0
362	1	1	52.925776191150376	-52.66589010752552	131.83689069912987	0	0	0
363	1	1	53.579180835485566	-53.38309568879775	131.59465419289438	0	0	0
364	1	1	54.232585479820756	-53.951481447557775	132.09465419289438	0	0	0
365	1	1	54.885990124155946	-54.66868702883001	131.8524176866589	0	0	0
366	1	1	55.539394768491135	-55.23707278759003	132.3524176866589	0	0	0
367	1	1	56.192799412826325	-55.95427836886226	132.1101811804234	0	0	0
368	1	1	56.846204057161515	-56.522664127622285	132.6101811804234	0	0	0
369	1	1	57.499608701496705	-57.23986970889452	132.36794467418792	0	0	0
370	1	1	58.153013345831894	-57.80825546765454	132.86794467418792	0	0	0
371	1	1	58.806417990167084	-58.52546104892677	132.62570816795244	0	0	0
372	1	1	59.459822634502274	-59.093846807686795	133.12570816795244	0	0	0
373	1	1	60.11322727883746	-59.81105238895903	132.88347166171695	0	0	0
374	1	1	60.76663192317265	-60.37943814771905	133.38347166171695	0	0	0
375	1	1	61.42003656750784	-61.09664372899128	133.14123515548147	0	0	0
376	1	1	62.07344121184303	-61.665029487751305	133.64123515548147	0	0	0
377	1	1	62.72684585617822	-62.38223506902354	133.39899864924598	0	0	0
378	1	1	63.38025050051341	-62.95062082778356	133.89899864924598	0	0	0
379	1	1	64.03365514484861	-63.66782640905579	133.6567621430105	0	0	0
380	1	1	64.6870597891838	-64.23621216781581	134.1567621430105	0	0	0
381	1	1	65.340464433519	-64.95341774908803	133.914525636775	0	0	0
382	1	1	65.9938690778542	-65.52180350784805	134.414525636775	0	0	0
383	1	1	66.6472737221894	-66.23900908912027	134.17228913053953	0	0	0
384	1	1	67.3006783665246	-66.80739484788029	134.67228913053953	0	0	0
385	1	1	67.95408301085979	-67.52460042915251	134.43005262430404	0	0	0
386	1	1	68.60748765519499	-68.09298618791253	134.93005262430404	0	0	0
387	1	1	69.26089229953018	-68.81019176918475	134.68781611806855	0	0	0
388	1	1	69.91429694386538	-69.37857752794477	135.18781611806855	0	0	0
389	1	1	70.56770158820058	-70.095783109217	134.94557961183307	0	0	0
390	1	1	71.22110623253577	-70.66416886797701	135.44557961183307	0	0	0
391	1	1	71.87451087687097	-71.38137444924924	135.20334310559758	0	0	0
392	1	1	72.52791552120617	-71.94976020800925	135.70334310559758	0	0	0
393	1	1	73.18132016554136	-72.66696578928148	135.4611065993621	0	0	0
394	1	1	73.83472480987656	-73.23535154804149	135.9611065993621	0	0	0
395	1	1	74.48812945421176	-73.95255712931372	135.7188700931266	0	0	0
396	1	1	75.14153409854696	-74.52094288807373	136.2188700931266	0	0	0
397	1	1	75.79493874288215	-75.23814846934596	135.97663358689113	0	0	0
398	1	1	76.44834338721735	-75.80653422810597	136.47663358689113	0	0	0
399	1	1	77.10174803155255	-76.5237398093782	136.23439708065564	0	0	0
400	1	1	77.75515267588774	-77.09212556813821	136.73439708065564	0	0	0
401	1	1	78.40855732022294	-77.80933114941044	136.49216057442015	0	0	0
402	1	1	79.06196196455814	-78.37771690817046	136.99216057442015	0	0	0
403	1	1	79.71536660889333	-79.09492248944268	136.74992406818467	0	0	0
404	1	1	80.36877125322853	-79.6633082482027	137.24992406818467	0	0	0
405	1	1	81.02217589756373	-80.38051382947492	137.00768756194918	0	0	0
406	1	1	81.67558054189892	-80.94889958823494	137.50768756194918	0	0	0
407	1	1	82.32898518623412	-81.66610516950716	137.2654510557137	0	0	0
408	1	1	82.98238983056932	-82.23449092826718	137.7654510557137	0	0	0
409	1	1	83.63579447490451	-82.9516965095394	137.5232145494782	0	0	0
410	1	1	84.28919911923971	-83.52008226829942	138.0232145494782	0	0	0
411	1	1	84.94260376357491	-84.23728784957164	137.78097804324273	0	0	0
412	1	1	85.5960084079101	-84.80567360833166	138.28097804324273	0	0	0
413	1	1	86.2494130522453	-85.52287918960388	138.03874153700724	0	0	0
414	1	1	86.9028176965805	-86.0912649483639	138.53874153700724	0	0	0
415	1	1	87.5562223409157	-86.80847052963612	138.29650503077175	0	0	0
416	1	1	88.20962698525089	-87.37685628839614	138.79650503077175	0	0	0
417	1	1	88.86303162958609	-88.09406186966837	138.55426852453627	0	0	0
418	1	1	89.51643627392129	-88.66244762842838	139.05426852453627	0	0	0
419	1	1	90.16984091825648	-89.3796532097006	138.81203201830078	0	0	0
420	1	1	90.82324556259168	-89.94803896846062	139.31203201830078	0	0	0
421	1	1	91.47665020692688	-90.66524454973285	139.0697955120653	0	0	0
422	1	1	0.6563153416472688	0.15340464433520867	121.75477447333341	0	0	0
423	1	1	1.3126306832945376	0.530647991631892	122.40817911766862	0	0	0
424	1	1	1.9689460249418065	1.2851346862252617	122.40817911766862	0	0	0
425	1	1	2.625261366589075	1.6623780335219451	123.06158376200383	0	0	0
426	1	1	3.281576708236344	2.416864728115315	123.06158376200383	0	0	0
427	1	1	3.937892049883613	2.7941080754119985	123.71498840633905	0	0	0
428	1	1	4.594207391530881	3.5485947700053684	123.71498840633905	0	0	0
429	1	1	5.25052273317815	3.925838117302052	124.36839305067426	0	0	0
430	1	1	5.906838074825419	4.680324811895422	124.36839305067426	0	0	0
431	1	1	6.563153416472688	5.057568159192105	125.02179769500947	0	0	0
432	1	1	7.219468758119957	5.812054853785474	125.02179769500947	0	0	0
433	1	1	7.875784099767226	6.189298201082157	125.67520233934468	0	0	0
434	1	1	8.532099441414495	6.943784895675527	125.67520233934468	0	0	0
435	1	1	9.188414783061763	7.3210282429722096	126.32860698367989	0	0	0
436	1	1	9.84473012470903	8.075514937565579	126.32860698367989	0	0	0
437	1	1	10.501045466356299	8.452758284862263	126.9820116280151	0	0	0
438	1	1	11.157360808003567	9.207244979455632	126.9820116280151	0	0	0
439	1	1	11.813676149650835	9.584488326752316	127.63541627235031	0	0	0
440	1	1	12.469991491298103	10.338975021345686	127.63541627235031	0	0	0
441	1	1	13.126306832945371	10.71621836864237	128.28882091668552	0	0	0
442	1	1	13.782622174592639	11.470705063235739	128.28882091668552	0	0	0
443	1	1	14.438937516239907	11.847948410532423	128.94222556102073	0	0	0
444	1	1	15.095252857887175	12.602435105125792	128.94222556102073	0	0	0
445	1	1	15.751568199534443	12.979678452422476	129.59563020535595	0	0	0
446	1	1	16.40788354118171	13.734165147015846	129.59563020535595	0	0	0
447	1	1	17.06419888282898	14.11140849431253	130.24903484969116	0	0	0
448	1	1	17.720514224476247	14.865895188905899	130.24903484969116	0	0	0
449	1	1	18.376829566123515	15.243138536202583	130.90243949402637	0	0	0
450	1	1	19.033144907770783	15.997625230795952	130.90243949402637	0	0	0
451	1	1	19.68946024941805	16.374868578092634	131.55584413836158	0	0	0
452	1	1	20.34577559106532	17.129355272686006	131.55584413836158	0	0	0
453	1	1	21.002090932712587	17.50659861998269	132.2092487826968	0	0	0
454	1	1	21.658406274359855	18.26108531457606	132.2092487826968	0	0	0
455	1	1	22.314721616007123	18.638328661872745	132.862653427032	0	0	0
456	1	1	22.97103695765439	19.392815356466116	132.862653427032	0	0	0
457	1	1	23.62735229930166	19.7700587037628	133.5160580713672	0	0	0
458	1	1	24.283667640948927	20.52454539835617	133.5160580713672	0	0	0
459	1	1	24.939982982596195	20.901788745652855	134.16946271570242	0	0	0
460	1	1	25.596298324243463	21.656275440246226	134.16946271570242	0	0	0
461	1	1	26.25261366589073	22.03351878754291	134.82286736003763	0	0	0
462	1	1	26.908929007538	22.78800548213628	134.82286736003763	0	0	0
463	1	1	27.565244349185267	23.165248829432965	135.47627200437285	0	0	0
464	1	1	28.221559690832535	23.919735524026336	135.47627200437285	0	0	0
465	1	1	28.877875032479803	24.29697887132302	136.12967664870806	0	0	0
466	1	1	29.53419037412707	25.05146556591639	136.12967664870806	0	0	0
467	1	1	30.19050571577434	25.428708913213075	136.78308129304327	0	0	0
468	1	1	30.846821057421607	26.183195607806447	136.78308129304327	0	0	0
469	1	1	31.503136399068875	26.56043895510313	137.43648593737848	0	0	0