bb320nuc1bl160bn5d30tot800V2

801 atoms
800 bonds
805 angles

1 atom types
1 bond types
1 angle types

-1000 1000 xlo xhi
-1000 1000 ylo yhi
-1000 1000 zlo zhi

Masses

1 1

Atoms

1	1	1	0.0	0.0	0.0	0	0	0
2	1	1	0.0	0.0	1.0	0	0	0
3	1	1	0.0	-0.49999999999999994	1.8660254037844388	0	0	0
4	1	1	0.0	0.0	2.7320508075688776	0	0	0
5	1	1	0.0	-0.49999999999999994	3.5980762113533165	0	0	0
6	1	1	0.0	0.0	4.464101615137755	0	0	0
7	1	1	0.0	-0.49999999999999994	5.330127018922194	0	0	0
8	1	1	0.0	0.0	6.196152422706632	0	0	0
9	1	1	0.0	-0.49999999999999994	7.06217782649107	0	0	0
10	1	1	0.0	0.0	7.928203230275509	0	0	0
11	1	1	0.0	-0.49999999999999994	8.794228634059948	0	0	0
12	1	1	0.0	0.0	9.660254037844387	0	0	0
13	1	1	0.0	-0.49999999999999994	10.526279441628827	0	0	0
14	1	1	0.0	0.0	11.392304845413266	0	0	0
15	1	1	0.0	-0.49999999999999994	12.258330249197705	0	0	0
16	1	1	0.0	0.0	13.124355652982144	0	0	0
17	1	1	0.0	-0.49999999999999994	13.990381056766584	0	0	0
18	1	1	0.0	0.0	14.856406460551023	0	0	0
19	1	1	0.0	-0.49999999999999994	15.722431864335462	0	0	0
20	1	1	0.0	0.0	16.5884572681199	0	0	0
21	1	1	0.0	-0.49999999999999994	17.454482671904337	0	0	0
22	1	1	0.0	0.0	18.320508075688775	0	0	0
23	1	1	0.0	-0.49999999999999994	19.186533479473212	0	0	0
24	1	1	0.0	0.0	20.05255888325765	0	0	0
25	1	1	0.0	-0.49999999999999994	20.918584287042087	0	0	0
26	1	1	0.0	0.0	21.784609690826525	0	0	0
27	1	1	0.0	-0.49999999999999994	22.650635094610962	0	0	0
28	1	1	0.0	0.0	23.5166604983954	0	0	0
29	1	1	0.0	-0.49999999999999994	24.382685902179837	0	0	0
30	1	1	0.0	0.0	25.248711305964274	0	0	0
31	1	1	0.0	-0.49999999999999994	26.114736709748712	0	0	0
32	1	1	0.0	0.0	26.98076211353315	0	0	0
33	1	1	0.0	-0.49999999999999994	27.846787517317587	0	0	0
34	1	1	0.0	0.0	28.712812921102024	0	0	0
35	1	1	0.0	-0.49999999999999994	29.578838324886462	0	0	0
36	1	1	0.0	0.0	30.4448637286709	0	0	0
37	1	1	0.0	-0.49999999999999994	31.310889132455337	0	0	0
38	1	1	0.0	0.0	32.17691453623978	0	0	0
39	1	1	0.0	-0.49999999999999994	33.04293994002422	0	0	0
40	1	1	0.0	0.0	33.90896534380866	0	0	0
41	1	1	0.0	-0.49999999999999994	34.7749907475931	0	0	0
42	1	1	0.0	0.0	35.64101615137754	0	0	0
43	1	1	0.0	-0.49999999999999994	36.50704155516198	0	0	0
44	1	1	0.0	0.0	37.373066958946424	0	0	0
45	1	1	0.0	-0.49999999999999994	38.239092362730865	0	0	0
46	1	1	0.0	0.0	39.105117766515306	0	0	0
47	1	1	0.0	-0.49999999999999994	39.97114317029975	0	0	0
48	1	1	0.0	0.0	40.83716857408419	0	0	0
49	1	1	0.0	-0.49999999999999994	41.70319397786863	0	0	0
50	1	1	0.0	0.0	42.56921938165307	0	0	0
51	1	1	0.0	-0.49999999999999994	43.43524478543751	0	0	0
52	1	1	0.0	0.0	44.30127018922195	0	0	0
53	1	1	0.0	-0.49999999999999994	45.16729559300639	0	0	0
54	1	1	0.0	0.0	46.033320996790835	0	0	0
55	1	1	0.0	-0.49999999999999994	46.899346400575276	0	0	0
56	1	1	0.0	0.0	47.76537180435972	0	0	0
57	1	1	0.0	-0.49999999999999994	48.63139720814416	0	0	0
58	1	1	0.0	0.0	49.4974226119286	0	0	0
59	1	1	0.0	-0.49999999999999994	50.36344801571304	0	0	0
60	1	1	0.0	0.0	51.22947341949748	0	0	0
61	1	1	0.0	-0.49999999999999994	52.09549882328192	0	0	0
62	1	1	0.0	0.0	52.96152422706636	0	0	0
63	1	1	0.0	-0.49999999999999994	53.827549630850804	0	0	0
64	1	1	0.0	0.0	54.693575034635245	0	0	0
65	1	1	0.0	-0.49999999999999994	55.559600438419686	0	0	0
66	1	1	0.0	0.0	56.42562584220413	0	0	0
67	1	1	0.0	-0.49999999999999994	57.29165124598857	0	0	0
68	1	1	0.0	0.0	58.15767664977301	0	0	0
69	1	1	0.0	-0.49999999999999994	59.02370205355745	0	0	0
70	1	1	0.0	0.0	59.88972745734189	0	0	0
71	1	1	0.0	-0.49999999999999994	60.75575286112633	0	0	0
72	1	1	0.0	0.0	61.62177826491077	0	0	0
73	1	1	0.0	-0.49999999999999994	62.487803668695214	0	0	0
74	1	1	0.0	0.0	63.353829072479655	0	0	0
75	1	1	0.0	-0.49999999999999994	64.21985447626409	0	0	0
76	1	1	0.0	0.0	65.08587988004852	0	0	0
77	1	1	0.0	-0.49999999999999994	65.95190528383296	0	0	0
78	1	1	0.0	0.0	66.81793068761739	0	0	0
79	1	1	0.0	-0.49999999999999994	67.68395609140183	0	0	0
80	1	1	0.0	0.0	68.54998149518626	0	0	0
81	1	1	0.0	-0.49999999999999994	69.41600689897069	0	0	0
82	1	1	0.0	0.0	70.28203230275513	0	0	0
83	1	1	0.0	-0.49999999999999994	71.14805770653956	0	0	0
84	1	1	0.0	0.0	72.014083110324	0	0	0
85	1	1	0.0	-0.49999999999999994	72.88010851410843	0	0	0
86	1	1	0.0	0.0	73.74613391789286	0	0	0
87	1	1	0.0	-0.49999999999999994	74.6121593216773	0	0	0
88	1	1	0.0	0.0	75.47818472546173	0	0	0
89	1	1	0.0	-0.49999999999999994	76.34421012924616	0	0	0
90	1	1	0.0	0.0	77.2102355330306	0	0	0
91	1	1	0.0	-0.49999999999999994	78.07626093681503	0	0	0
92	1	1	0.0	0.0	78.94228634059947	0	0	0
93	1	1	0.0	-0.49999999999999994	79.8083117443839	0	0	0
94	1	1	0.0	0.0	80.67433714816833	0	0	0
95	1	1	0.0	-0.49999999999999994	81.54036255195277	0	0	0
96	1	1	0.0	0.0	82.4063879557372	0	0	0
97	1	1	0.0	-0.49999999999999994	83.27241335952164	0	0	0
98	1	1	0.0	0.0	84.13843876330607	0	0	0
99	1	1	0.0	-0.49999999999999994	85.0044641670905	0	0	0
100	1	1	0.0	0.0	85.87048957087494	0	0	0
101	1	1	0.0	-0.49999999999999994	86.73651497465937	0	0	0
102	1	1	0.0	0.0	87.6025403784438	0	0	0
103	1	1	0.0	-0.49999999999999994	88.46856578222824	0	0	0
104	1	1	0.0	0.0	89.33459118601267	0	0	0
105	1	1	0.0	-0.49999999999999994	90.20061658979711	0	0	0
106	1	1	0.0	0.0	91.06664199358154	0	0	0
107	1	1	0.0	-0.49999999999999994	91.93266739736598	0	0	0
108	1	1	0.0	0.0	92.79869280115041	0	0	0
109	1	1	0.0	-0.49999999999999994	93.66471820493484	0	0	0
110	1	1	0.0	0.0	94.53074360871928	0	0	0
111	1	1	0.0	-0.49999999999999994	95.39676901250371	0	0	0
112	1	1	0.0	0.0	96.26279441628814	0	0	0
113	1	1	0.0	-0.49999999999999994	97.12881982007258	0	0	0
114	1	1	0.0	0.0	97.99484522385701	0	0	0
115	1	1	0.0	-0.49999999999999994	98.86087062764145	0	0	0
116	1	1	0.0	0.0	99.72689603142588	0	0	0
117	1	1	0.0	-0.49999999999999994	100.59292143521031	0	0	0
118	1	1	0.0	0.0	101.45894683899475	0	0	0
119	1	1	0.0	-0.49999999999999994	102.32497224277918	0	0	0
120	1	1	0.0	0.0	103.19099764656362	0	0	0
121	1	1	0.0	-0.49999999999999994	104.05702305034805	0	0	0
122	1	1	0.0	0.0	104.92304845413248	0	0	0
123	1	1	0.0	-0.49999999999999994	105.78907385791692	0	0	0
124	1	1	0.0	0.0	106.65509926170135	0	0	0
125	1	1	0.0	-0.49999999999999994	107.52112466548579	0	0	0
126	1	1	0.0	0.0	108.38715006927022	0	0	0
127	1	1	0.0	-0.49999999999999994	109.25317547305465	0	0	0
128	1	1	0.0	0.0	110.11920087683909	0	0	0
129	1	1	0.0	-0.49999999999999994	110.98522628062352	0	0	0
130	1	1	0.0	0.0	111.85125168440796	0	0	0
131	1	1	0.0	-0.49999999999999994	112.71727708819239	0	0	0
132	1	1	0.0	0.0	113.58330249197682	0	0	0
133	1	1	0.0	-0.49999999999999994	114.44932789576126	0	0	0
134	1	1	0.0	0.0	115.31535329954569	0	0	0
135	1	1	0.0	-0.49999999999999994	116.18137870333013	0	0	0
136	1	1	0.0	0.0	117.04740410711456	0	0	0
137	1	1	0.0	-0.49999999999999994	117.913429510899	0	0	0
138	1	1	0.0	0.0	118.77945491468343	0	0	0
139	1	1	0.0	-0.49999999999999994	119.64548031846786	0	0	0
140	1	1	0.0	0.0	120.5115057222523	0	0	0
141	1	1	0.0	-0.49999999999999994	121.37753112603673	0	0	0
142	1	1	0.0	0.0	122.24355652982116	0	0	0
143	1	1	0.0	-0.49999999999999994	123.1095819336056	0	0	0
144	1	1	0.0	0.0	123.97560733739003	0	0	0
145	1	1	0.0	-0.49999999999999994	124.84163274117446	0	0	0
146	1	1	0.0	0.0	125.7076581449589	0	0	0
147	1	1	0.0	-0.49999999999999994	126.57368354874333	0	0	0
148	1	1	0.0	0.0	127.43970895252777	0	0	0
149	1	1	0.0	-0.49999999999999994	128.3057343563122	0	0	0
150	1	1	0.0	0.0	129.17175976009665	0	0	0
151	1	1	0.0	-0.49999999999999994	130.0377851638811	0	0	0
152	1	1	0.0	0.0	130.90381056766554	0	0	0
153	1	1	0.0	-0.49999999999999994	131.76983597145	0	0	0
154	1	1	0.0	0.0	132.63586137523444	0	0	0
155	1	1	0.0	-0.49999999999999994	133.5018867790189	0	0	0
156	1	1	0.0	0.0	134.36791218280334	0	0	0
157	1	1	0.0	-0.49999999999999994	135.23393758658779	0	0	0
158	1	1	0.0	0.0	136.09996299037223	0	0	0
159	1	1	0.0	-0.49999999999999994	136.96598839415668	0	0	0
160	1	1	0.0	0.0	137.83201379794113	0	0	0
161	1	1	0.0	-0.49999999999999994	138.69803920172558	0	0	0
162	1	1	-0.8632122302934597	-0.6895973170806733	139.16592540886106	0	0	0
163	1	1	-1.7264244605869123	-1.0877365137296426	139.47632809178037	0	0	0
164	1	1	-2.589636690880365	-1.0179895032431434	139.97632809178037	0	0	0
165	1	1	-3.4528489211738176	-1.4161286998921128	140.2867307746997	0	0	0
166	1	1	-4.31606115146727	-1.3463816894056135	140.7867307746997	0	0	0
167	1	1	-5.179273381760723	-1.7445208860545829	141.097133457619	0	0	0
168	1	1	-6.0424856120541754	-1.6747738755680837	141.597133457619	0	0	0
169	1	1	-6.905697842347628	-2.072913072217053	141.90753614053833	0	0	0
170	1	1	-7.768910072641081	-2.003166061730554	142.40753614053833	0	0	0
171	1	1	-8.632122302934533	-2.401305258379523	142.71793882345764	0	0	0
172	1	1	-9.495334533227986	-2.3315582478930237	143.21793882345764	0	0	0
173	1	1	-10.358546763521439	-2.729697444541993	143.52834150637696	0	0	0
174	1	1	-11.221758993814891	-2.6599504340554936	144.02834150637696	0	0	0
175	1	1	-12.084971224108344	-3.0580896307044627	144.33874418929628	0	0	0
176	1	1	-12.948183454401796	-2.9883426202179635	144.83874418929628	0	0	0
177	1	1	-13.811395684695249	-3.3864818168669326	145.1491468722156	0	0	0
178	1	1	-14.674607914988702	-3.3167348063804334	145.6491468722156	0	0	0
179	1	1	-15.537820145282154	-3.7148740030294025	145.9595495551349	0	0	0
180	1	1	-16.401032375575607	-3.6451269925429033	146.4595495551349	0	0	0
181	1	1	-17.26424460586906	-4.043266189191873	146.76995223805423	0	0	0
182	1	1	-18.127456836162512	-3.9735191787053736	147.26995223805423	0	0	0
183	1	1	-18.990669066455965	-4.371658375354343	147.58035492097355	0	0	0
184	1	1	-19.853881296749417	-4.301911364867844	148.08035492097355	0	0	0
185	1	1	-20.71709352704287	-4.7000505615168136	148.39075760389287	0	0	0
186	1	1	-21.580305757336323	-4.630303551030314	148.89075760389287	0	0	0
187	1	1	-22.443517987629775	-5.028442747679284	149.20116028681218	0	0	0
188	1	1	-23.306730217923228	-4.958695737192785	149.70116028681218	0	0	0
189	1	1	-24.16994244821668	-5.356834933841754	150.0115629697315	0	0	0
190	1	1	-25.033154678510133	-5.287087923355255	150.5115629697315	0	0	0
191	1	1	-25.896366908803586	-5.685227120004225	150.82196565265082	0	0	0
192	1	1	-26.75957913909704	-5.615480109517725	151.32196565265082	0	0	0
193	1	1	-27.62279136939049	-6.013619306166695	151.63236833557013	0	0	0
194	1	1	-28.486003599683944	-5.943872295680196	152.13236833557013	0	0	0
195	1	1	-29.349215829977396	-6.342011492329165	152.44277101848945	0	0	0
196	1	1	-30.21242806027085	-6.272264481842666	152.94277101848945	0	0	0
197	1	1	-31.0756402905643	-6.670403678491636	153.25317370140877	0	0	0
198	1	1	-31.938852520857754	-6.600656668005136	153.75317370140877	0	0	0
199	1	1	-32.80206475115121	-6.998795864654106	154.0635763843281	0	0	0
200	1	1	-33.66527698144466	-6.929048854167607	154.5635763843281	0	0	0
201	1	1	-34.52848921173812	-7.327188050816576	154.8739790672474	0	0	0
202	1	1	-35.391701442031575	-7.257441040330077	155.3739790672474	0	0	0
203	1	1	-36.25491367232503	-7.655580236979047	155.68438175016672	0	0	0
204	1	1	-37.11812590261849	-7.585833226492547	156.18438175016672	0	0	0
205	1	1	-37.981338132911944	-7.983972423141517	156.49478443308604	0	0	0
206	1	1	-38.8445503632054	-7.914225412655018	156.99478443308604	0	0	0
207	1	1	-39.707762593498856	-8.312364609303987	157.30518711600536	0	0	0
208	1	1	-40.57097482379231	-8.242617598817489	157.80518711600536	0	0	0
209	1	1	-41.43418705408577	-8.640756795466459	158.11558979892467	0	0	0
210	1	1	-42.297399284379225	-8.57100978497996	158.61558979892467	0	0	0
211	1	1	-43.16061151467268	-8.96914898162893	158.925992481844	0	0	0
212	1	1	-44.02382374496614	-8.899401971142431	159.425992481844	0	0	0
213	1	1	-44.88703597525959	-9.297541167791401	159.7363951647633	0	0	0
214	1	1	-45.75024820555305	-9.227794157304903	160.2363951647633	0	0	0
215	1	1	-46.613460435846505	-9.625933353953872	160.54679784768263	0	0	0
216	1	1	-47.47667266613996	-9.556186343467374	161.04679784768263	0	0	0
217	1	1	-48.33988489643342	-9.954325540116344	161.35720053060194	0	0	0
218	1	1	-49.203097126726874	-9.884578529629845	161.85720053060194	0	0	0
219	1	1	-50.06630935702033	-10.282717726278815	162.16760321352126	0	0	0
220	1	1	-50.929521587313786	-10.212970715792316	162.66760321352126	0	0	0
221	1	1	-51.79273381760724	-10.611109912441286	162.97800589644058	0	0	0
222	1	1	-52.6559460479007	-10.541362901954788	163.47800589644058	0	0	0
223	1	1	-53.519158278194155	-10.939502098603757	163.7884085793599	0	0	0
224	1	1	-54.38237050848761	-10.869755088117259	164.2884085793599	0	0	0
225	1	1	-55.24558273878107	-11.267894284766228	164.5988112622792	0	0	0
226	1	1	-56.10879496907452	-11.19814727427973	165.0988112622792	0	0	0
227	1	1	-56.97200719936798	-11.5962864709287	165.40921394519853	0	0	0
228	1	1	-57.835219429661436	-11.526539460442201	165.90921394519853	0	0	0
229	1	1	-58.69843165995489	-11.924678657091171	166.21961662811785	0	0	0
230	1	1	-59.56164389024835	-11.854931646604673	166.71961662811785	0	0	0
231	1	1	-60.424856120541804	-12.253070843253642	167.03001931103717	0	0	0
232	1	1	-61.28806835083526	-12.183323832767144	167.53001931103717	0	0	0
233	1	1	-62.15128058112872	-12.581463029416113	167.84042199395648	0	0	0
234	1	1	-63.01449281142217	-12.511716018929615	168.34042199395648	0	0	0
235	1	1	-63.87770504171563	-12.909855215578585	168.6508246768758	0	0	0
236	1	1	-64.74091727200909	-12.840108205092086	169.1508246768758	0	0	0
237	1	1	-65.60412950230254	-13.238247401741056	169.46122735979512	0	0	0
238	1	1	-66.467341732596	-13.168500391254558	169.96122735979512	0	0	0
239	1	1	-67.33055396288945	-13.566639587903527	170.27163004271443	0	0	0
240	1	1	-68.19376619318291	-13.496892577417029	170.77163004271443	0	0	0
241	1	1	-69.05697842347637	-13.895031774065998	171.08203272563375	0	0	0
242	1	1	-69.92019065376982	-13.8252847635795	171.58203272563375	0	0	0
243	1	1	-70.78340288406328	-14.22342396022847	171.89243540855307	0	0	0
244	1	1	-71.64661511435673	-14.153676949741971	172.39243540855307	0	0	0
245	1	1	-72.50982734465019	-14.55181614639094	172.7028380914724	0	0	0
246	1	1	-73.37303957494365	-14.482069135904442	173.2028380914724	0	0	0
247	1	1	-74.2362518052371	-14.880208332553412	173.5132407743917	0	0	0
248	1	1	-75.09946403553056	-14.810461322066914	174.0132407743917	0	0	0
249	1	1	-75.96267626582402	-15.208600518715883	174.32364345731102	0	0	0
250	1	1	-76.82588849611747	-15.138853508229385	174.82364345731102	0	0	0
251	1	1	-77.68910072641093	-15.536992704878354	175.13404614023034	0	0	0
252	1	1	-78.55231295670438	-15.467245694391856	175.63404614023034	0	0	0
253	1	1	-79.41552518699784	-15.865384891040826	175.94444882314966	0	0	0
254	1	1	-80.2787374172913	-15.795637880554327	176.44444882314966	0	0	0
255	1	1	-81.14194964758475	-16.193777077203297	176.75485150606897	0	0	0
256	1	1	-82.00516187787821	-16.1240300667168	177.25485150606897	0	0	0
257	1	1	-82.86837410817166	-16.522169263365768	177.5652541889883	0	0	0
258	1	1	-83.73158633846512	-16.45242225287927	178.0652541889883	0	0	0
259	1	1	-84.59479856875858	-16.85056144952824	178.3756568719076	0	0	0
260	1	1	-85.45801079905203	-16.78081443904174	178.8756568719076	0	0	0
261	1	1	-86.32122302934549	-17.17895363569071	179.18605955482693	0	0	0
262	1	1	-87.18443525963895	-17.109206625204212	179.68605955482693	0	0	0
263	1	1	-88.0476474899324	-17.507345821853182	179.99646223774624	0	0	0
264	1	1	-88.91085972022586	-17.437598811366684	180.49646223774624	0	0	0
265	1	1	-89.77407195051931	-17.835738008015653	180.80686492066556	0	0	0
266	1	1	-90.63728418081277	-17.765990997529155	181.30686492066556	0	0	0
267	1	1	-91.50049641110623	-18.164130194178124	181.61726760358488	0	0	0
268	1	1	-92.36370864139968	-18.094383183691626	182.11726760358488	0	0	0
269	1	1	-93.22692087169314	-18.492522380340596	182.4276702865042	0	0	0
270	1	1	-94.0901331019866	-18.422775369854097	182.9276702865042	0	0	0
271	1	1	-94.95334533228005	-18.820914566503067	183.2380729694235	0	0	0
272	1	1	-95.81655756257351	-18.75116755601657	183.7380729694235	0	0	0
273	1	1	-96.67976979286696	-19.149306752665538	184.04847565234283	0	0	0
274	1	1	-97.54298202316042	-19.07955974217904	184.54847565234283	0	0	0
275	1	1	-98.40619425345388	-19.47769893882801	184.85887833526215	0	0	0
276	1	1	-99.26940648374733	-19.40795192834151	185.35887833526215	0	0	0
277	1	1	-100.13261871404079	-19.80609112499048	185.66928101818147	0	0	0
278	1	1	-100.99583094433424	-19.736344114503982	186.16928101818147	0	0	0
279	1	1	-101.8590431746277	-20.13448331115295	186.47968370110078	0	0	0
280	1	1	-102.72225540492116	-20.064736300666453	186.97968370110078	0	0	0
281	1	1	-103.58546763521461	-20.462875497315423	187.2900863840201	0	0	0
282	1	1	-104.44867986550807	-20.393128486828925	187.7900863840201	0	0	0
283	1	1	-105.31189209580153	-20.791267683477894	188.10048906693942	0	0	0
284	1	1	-106.17510432609498	-20.721520672991396	188.60048906693942	0	0	0
285	1	1	-107.03831655638844	-21.119659869640365	188.91089174985873	0	0	0
286	1	1	-107.9015287866819	-21.049912859153867	189.41089174985873	0	0	0
287	1	1	-108.76474101697535	-21.448052055802837	189.72129443277805	0	0	0
288	1	1	-109.6279532472688	-21.37830504531634	190.22129443277805	0	0	0
289	1	1	-110.49116547756226	-21.776444241965308	190.53169711569737	0	0	0
290	1	1	-111.35437770785572	-21.70669723147881	191.03169711569737	0	0	0
291	1	1	-112.21758993814917	-22.10483642812778	191.3420997986167	0	0	0
292	1	1	-113.08080216844263	-22.03508941764128	191.8420997986167	0	0	0
293	1	1	-113.94401439873609	-22.43322861429025	192.152502481536	0	0	0
294	1	1	-114.80722662902954	-22.363481603803752	192.652502481536	0	0	0
295	1	1	-115.670438859323	-22.76162080045272	192.96290516445532	0	0	0
296	1	1	-116.53365108961646	-22.691873789966223	193.46290516445532	0	0	0
297	1	1	-117.39686331990991	-23.090012986615193	193.77330784737464	0	0	0
298	1	1	-118.26007555020337	-23.020265976128695	194.27330784737464	0	0	0
299	1	1	-119.12328778049682	-23.418405172777664	194.58371053029396	0	0	0
300	1	1	-119.98650001079028	-23.348658162291166	195.08371053029396	0	0	0
301	1	1	-120.84971224108374	-23.746797358940135	195.39411321321327	0	0	0
302	1	1	-121.71292447137719	-23.677050348453637	195.89411321321327	0	0	0
303	1	1	-122.57613670167065	-24.075189545102607	196.2045158961326	0	0	0
304	1	1	-123.4393489319641	-24.005442534616108	196.7045158961326	0	0	0
305	1	1	-124.30256116225756	-24.403581731265078	197.0149185790519	0	0	0
306	1	1	-125.16577339255102	-24.33383472077858	197.5149185790519	0	0	0
307	1	1	-126.02898562284447	-24.73197391742755	197.82532126197123	0	0	0
308	1	1	-126.89219785313793	-24.66222690694105	198.32532126197123	0	0	0
309	1	1	-127.75541008343139	-25.06036610359002	198.63572394489054	0	0	0
310	1	1	-128.61862231372484	-24.990619093103522	199.13572394489054	0	0	0
311	1	1	-129.48183454401828	-25.38875828975249	199.44612662780986	0	0	0
312	1	1	-130.34504677431173	-25.319011279265993	199.94612662780986	0	0	0
313	1	1	-131.20825900460517	-25.717150475914963	200.25652931072918	0	0	0
314	1	1	-132.0714712348986	-25.647403465428464	200.75652931072918	0	0	0
315	1	1	-132.93468346519205	-26.045542662077434	201.0669319936485	0	0	0
316	1	1	-133.7978956954855	-25.975795651590936	201.5669319936485	0	0	0
317	1	1	-134.66110792577894	-26.373934848239905	201.8773346765678	0	0	0
318	1	1	-135.52432015607238	-26.304187837753407	202.3773346765678	0	0	0
319	1	1	-136.38753238636582	-26.702327034402376	202.68773735948713	0	0	0
320	1	1	-137.25074461665926	-26.632580023915878	203.18773735948713	0	0	0
321	1	1	-138.1139568469527	-27.030719220564848	203.49814004240645	0	0	0
322	1	1	0.8632122302934596	-0.8104026829193265	139.09617839837455	0	0	0
323	1	1	1.726424460586912	-1.2782888900547935	139.28577571545523	0	0	0
324	1	1	2.589636690880364	-1.3480359005412876	139.78577571545523	0	0	0
325	1	1	3.4528489211738163	-1.8159221076767547	139.9753730325359	0	0	0
326	1	1	4.316061151467268	-1.885669118163249	140.4753730325359	0	0	0
327	1	1	5.179273381760721	-2.353555325298716	140.6649703496166	0	0	0
328	1	1	6.042485612054174	-2.4233023357852104	141.1649703496166	0	0	0
329	1	1	6.905697842347626	-2.8911885429206774	141.35456766669728	0	0	0
330	1	1	7.768910072641079	-2.9609355534071717	141.85456766669728	0	0	0
331	1	1	8.632122302934532	-3.4288217605426388	142.04416498377796	0	0	0
332	1	1	9.495334533227984	-3.498568771029133	142.54416498377796	0	0	0
333	1	1	10.358546763521437	-3.9664549781646	142.73376230085864	0	0	0
334	1	1	11.22175899381489	-4.0362019886510945	143.23376230085864	0	0	0
335	1	1	12.084971224108342	-4.5040881957865615	143.42335961793933	0	0	0
336	1	1	12.948183454401795	-4.573835206273055	143.92335961793933	0	0	0
337	1	1	13.811395684695247	-5.041721413408522	144.11295693502	0	0	0
338	1	1	14.6746079149887	-5.111468423895016	144.61295693502	0	0	0
339	1	1	15.537820145282152	-5.579354631030483	144.8025542521007	0	0	0
340	1	1	16.401032375575603	-5.649101641516977	145.3025542521007	0	0	0
341	1	1	17.264244605869056	-6.116987848652444	145.49215156918137	0	0	0
342	1	1	18.12745683616251	-6.186734859138938	145.99215156918137	0	0	0
343	1	1	18.99066906645596	-6.654621066274405	146.18174888626206	0	0	0
344	1	1	19.853881296749414	-6.724368076760899	146.68174888626206	0	0	0
345	1	1	20.717093527042866	-7.192254283896366	146.87134620334274	0	0	0
346	1	1	21.58030575733632	-7.26200129438286	147.37134620334274	0	0	0
347	1	1	22.44351798762977	-7.729887501518327	147.56094352042342	0	0	0
348	1	1	23.306730217923224	-7.799634512004821	148.06094352042342	0	0	0
349	1	1	24.169942448216677	-8.267520719140288	148.2505408375041	0	0	0
350	1	1	25.03315467851013	-8.337267729626783	148.7505408375041	0	0	0
351	1	1	25.896366908803582	-8.805153936762249	148.9401381545848	0	0	0
352	1	1	26.759579139097035	-8.874900947248744	149.4401381545848	0	0	0
353	1	1	27.622791369390487	-9.34278715438421	149.62973547166547	0	0	0
354	1	1	28.48600359968394	-9.412534164870705	150.12973547166547	0	0	0
355	1	1	29.349215829977393	-9.88042037200617	150.31933278874615	0	0	0
356	1	1	30.212428060270845	-9.950167382492666	150.81933278874615	0	0	0
357	1	1	31.075640290564298	-10.418053589628132	151.00893010582683	0	0	0
358	1	1	31.93885252085775	-10.487800600114626	151.50893010582683	0	0	0
359	1	1	32.8020647511512	-10.955686807250093	151.69852742290752	0	0	0
360	1	1	33.66527698144465	-11.025433817736587	152.19852742290752	0	0	0
361	1	1	34.5284892117381	-11.493320024872054	152.3881247399882	0	0	0
362	1	1	35.39170144203155	-11.563067035358548	152.8881247399882	0	0	0
363	1	1	36.254913672324996	-12.030953242494014	153.07772205706888	0	0	0
364	1	1	37.118125902618445	-12.10070025298051	153.57772205706888	0	0	0
365	1	1	37.981338132911894	-12.568586460115975	153.76731937414957	0	0	0
366	1	1	38.84455036320534	-12.63833347060247	154.26731937414957	0	0	0
367	1	1	39.70776259349879	-13.106219677737936	154.45691669123025	0	0	0
368	1	1	40.57097482379224	-13.175966688224431	154.95691669123025	0	0	0
369	1	1	41.43418705408569	-13.643852895359897	155.14651400831093	0	0	0
370	1	1	42.29739928437914	-13.713599905846392	155.64651400831093	0	0	0
371	1	1	43.16061151467259	-14.181486112981858	155.8361113253916	0	0	0
372	1	1	44.02382374496604	-14.251233123468353	156.3361113253916	0	0	0
373	1	1	44.88703597525949	-14.719119330603819	156.5257086424723	0	0	0
374	1	1	45.750248205552936	-14.788866341090314	157.0257086424723	0	0	0
375	1	1	46.613460435846385	-15.25675254822578	157.21530595955298	0	0	0
376	1	1	47.476672666139834	-15.326499558712275	157.71530595955298	0	0	0
377	1	1	48.33988489643328	-15.794385765847741	157.90490327663366	0	0	0
378	1	1	49.20309712672673	-15.864132776334236	158.40490327663366	0	0	0
379	1	1	50.06630935702018	-16.332018983469702	158.59450059371434	0	0	0
380	1	1	50.92952158731363	-16.401765993956197	159.09450059371434	0	0	0
381	1	1	51.79273381760708	-16.869652201091665	159.28409791079503	0	0	0
382	1	1	52.65594604790053	-16.93939921157816	159.78409791079503	0	0	0
383	1	1	53.51915827819398	-17.407285418713627	159.9736952278757	0	0	0
384	1	1	54.382370508487426	-17.477032429200122	160.4736952278757	0	0	0
385	1	1	55.245582738780875	-17.94491863633559	160.6632925449564	0	0	0
386	1	1	56.108794969074324	-18.014665646822085	161.1632925449564	0	0	0
387	1	1	56.97200719936777	-18.482551853957553	161.35288986203707	0	0	0
388	1	1	57.83521942966122	-18.552298864444047	161.85288986203707	0	0	0
389	1	1	58.69843165995467	-19.020185071579515	162.04248717911776	0	0	0
390	1	1	59.56164389024812	-19.08993208206601	162.54248717911776	0	0	0
391	1	1	60.42485612054157	-19.557818289201478	162.73208449619844	0	0	0
392	1	1	61.28806835083502	-19.627565299687973	163.23208449619844	0	0	0
393	1	1	62.15128058112847	-20.09545150682344	163.42168181327912	0	0	0
394	1	1	63.01449281142192	-20.165198517309936	163.92168181327912	0	0	0
395	1	1	63.877705041715366	-20.633084724445403	164.1112791303598	0	0	0
396	1	1	64.74091727200882	-20.702831734931898	164.6112791303598	0	0	0
397	1	1	65.60412950230227	-21.170717942067366	164.8008764474405	0	0	0
398	1	1	66.46734173259573	-21.24046495255386	165.3008764474405	0	0	0
399	1	1	67.33055396288918	-21.70835115968933	165.49047376452117	0	0	0
400	1	1	68.19376619318264	-21.778098170175824	165.99047376452117	0	0	0
401	1	1	69.0569784234761	-22.24598437731129	166.18007108160185	0	0	0
402	1	1	69.92019065376955	-22.315731387797786	166.68007108160185	0	0	0
403	1	1	70.78340288406301	-22.783617594933254	166.86966839868253	0	0	0
404	1	1	71.64661511435646	-22.85336460541975	167.36966839868253	0	0	0
405	1	1	72.50982734464992	-23.321250812555217	167.55926571576322	0	0	0
406	1	1	73.37303957494338	-23.39099782304171	168.05926571576322	0	0	0
407	1	1	74.23625180523683	-23.85888403017718	168.2488630328439	0	0	0
408	1	1	75.09946403553029	-23.928631040663674	168.7488630328439	0	0	0
409	1	1	75.96267626582375	-24.396517247799142	168.93846034992458	0	0	0
410	1	1	76.8258884961172	-24.466264258285637	169.43846034992458	0	0	0
411	1	1	77.68910072641066	-24.934150465421105	169.62805766700527	0	0	0
412	1	1	78.55231295670411	-25.0038974759076	170.12805766700527	0	0	0
413	1	1	79.41552518699757	-25.471783683043068	170.31765498408595	0	0	0
414	1	1	80.27873741729103	-25.541530693529563	170.81765498408595	0	0	0
415	1	1	81.14194964758448	-26.00941690066503	171.00725230116663	0	0	0
416	1	1	82.00516187787794	-26.079163911151525	171.50725230116663	0	0	0
417	1	1	82.8683741081714	-26.547050118286993	171.6968496182473	0	0	0
418	1	1	83.73158633846485	-26.616797128773488	172.1968496182473	0	0	0
419	1	1	84.5947985687583	-27.084683335908956	172.386446935328	0	0	0
420	1	1	85.45801079905176	-27.15443034639545	172.886446935328	0	0	0
421	1	1	86.32122302934522	-27.62231655353092	173.07604425240868	0	0	0
422	1	1	87.18443525963868	-27.692063564017413	173.57604425240868	0	0	0
423	1	1	88.04764748993213	-28.15994977115288	173.76564156948936	0	0	0
424	1	1	88.91085972022559	-28.229696781639376	174.26564156948936	0	0	0
425	1	1	89.77407195051904	-28.697582988774844	174.45523888657004	0	0	0
426	1	1	90.6372841808125	-28.76732999926134	174.95523888657004	0	0	0
427	1	1	91.50049641110596	-29.235216206396807	175.14483620365073	0	0	0
428	1	1	92.36370864139941	-29.3049632168833	175.64483620365073	0	0	0
429	1	1	93.22692087169287	-29.77284942401877	175.8344335207314	0	0	0
430	1	1	94.09013310198632	-29.842596434505264	176.3344335207314	0	0	0
431	1	1	94.95334533227978	-30.310482641640732	176.5240308378121	0	0	0
432	1	1	95.81655756257324	-30.380229652127227	177.0240308378121	0	0	0
433	1	1	96.6797697928667	-30.848115859262695	177.21362815489277	0	0	0
434	1	1	97.54298202316015	-30.91786286974919	177.71362815489277	0	0	0
435	1	1	98.4061942534536	-31.385749076884657	177.90322547197346	0	0	0
436	1	1	99.26940648374706	-31.455496087371152	178.40322547197346	0	0	0
437	1	1	100.13261871404052	-31.92338229450662	178.59282278905414	0	0	0
438	1	1	100.99583094433397	-31.993129304993115	179.09282278905414	0	0	0
439	1	1	101.85904317462743	-32.46101551212858	179.28242010613482	0	0	0
440	1	1	102.72225540492089	-32.53076252261508	179.78242010613482	0	0	0
441	1	1	103.58546763521434	-32.99864872975054	179.9720174232155	0	0	0
442	1	1	104.4486798655078	-33.06839574023704	180.4720174232155	0	0	0
443	1	1	105.31189209580126	-33.5362819473725	180.6616147402962	0	0	0
444	1	1	106.17510432609471	-33.606028957858996	181.1616147402962	0	0	0
445	1	1	107.03831655638817	-34.07391516499446	181.35121205737687	0	0	0
446	1	1	107.90152878668162	-34.143662175480955	181.85121205737687	0	0	0
447	1	1	108.76474101697508	-34.61154838261642	182.04080937445755	0	0	0
448	1	1	109.62795324726854	-34.681295393102914	182.54080937445755	0	0	0
449	1	1	110.49116547756199	-35.14918160023838	182.73040669153824	0	0	0
450	1	1	111.35437770785545	-35.21892861072487	183.23040669153824	0	0	0
451	1	1	112.2175899381489	-35.68681481786034	183.42000400861892	0	0	0
452	1	1	113.08080216844236	-35.75656182834683	183.92000400861892	0	0	0
453	1	1	113.94401439873582	-36.2244480354823	184.1096013256996	0	0	0
454	1	1	114.80722662902927	-36.29419504596879	184.6096013256996	0	0	0
455	1	1	115.67043885932273	-36.762081253104256	184.79919864278028	0	0	0
456	1	1	116.53365108961619	-36.83182826359075	185.29919864278028	0	0	0
457	1	1	117.39686331990964	-37.299714470726215	185.48879595986097	0	0	0
458	1	1	118.2600755502031	-37.36946148121271	185.98879595986097	0	0	0
459	1	1	119.12328778049655	-37.837347688348174	186.17839327694165	0	0	0
460	1	1	119.98650001079001	-37.90709469883467	186.67839327694165	0	0	0
461	1	1	120.84971224108347	-38.37498090597013	186.86799059402233	0	0	0
462	1	1	121.71292447137692	-38.44472791645663	187.36799059402233	0	0	0
463	1	1	122.57613670167038	-38.91261412359209	187.557587911103	0	0	0
464	1	1	123.43934893196383	-38.98236113407859	188.057587911103	0	0	0
465	1	1	124.30256116225729	-39.45024734121405	188.2471852281837	0	0	0
466	1	1	125.16577339255075	-39.51999435170055	188.7471852281837	0	0	0
467	1	1	126.0289856228442	-39.98788055883601	188.93678254526438	0	0	0
468	1	1	126.89219785313766	-40.057627569322506	189.43678254526438	0	0	0
469	1	1	127.75541008343112	-40.52551377645797	189.62637986234506	0	0	0
470	1	1	128.61862231372456	-40.595260786944465	190.12637986234506	0	0	0
471	1	1	129.481834544018	-41.06314699407993	190.31597717942574	0	0	0
472	1	1	130.34504677431144	-41.132894004566424	190.81597717942574	0	0	0