bb440nuc1bl220bn5d30tot1100V2

1101 atoms
1100 bonds
1105 angles

1 atom types
1 bond types
1 angle types

-1000 1000 xlo xhi
-1000 1000 ylo yhi
-1000 1000 zlo zhi

Masses

1 1

Atoms

1	1	1	0.0	0.0	0.0	0	0	0
2	1	1	0.0	0.0	1.0	0	0	0
3	1	1	0.0	-0.49999999999999994	1.8660254037844388	0	0	0
4	1	1	0.0	0.0	2.7320508075688776	0	0	0
5	1	1	0.0	-0.49999999999999994	3.5980762113533165	0	0	0
6	1	1	0.0	0.0	4.464101615137755	0	0	0
7	1	1	0.0	-0.49999999999999994	5.330127018922194	0	0	0
8	1	1	0.0	0.0	6.196152422706632	0	0	0
9	1	1	0.0	-0.49999999999999994	7.06217782649107	0	0	0
10	1	1	0.0	0.0	7.928203230275509	0	0	0
11	1	1	0.0	-0.49999999999999994	8.794228634059948	0	0	0
12	1	1	0.0	0.0	9.660254037844387	0	0	0
13	1	1	0.0	-0.49999999999999994	10.526279441628827	0	0	0
14	1	1	0.0	0.0	11.392304845413266	0	0	0
15	1	1	0.0	-0.49999999999999994	12.258330249197705	0	0	0
16	1	1	0.0	0.0	13.124355652982144	0	0	0
17	1	1	0.0	-0.49999999999999994	13.990381056766584	0	0	0
18	1	1	0.0	0.0	14.856406460551023	0	0	0
19	1	1	0.0	-0.49999999999999994	15.722431864335462	0	0	0
20	1	1	0.0	0.0	16.5884572681199	0	0	0
21	1	1	0.0	-0.49999999999999994	17.454482671904337	0	0	0
22	1	1	0.0	0.0	18.320508075688775	0	0	0
23	1	1	0.0	-0.49999999999999994	19.186533479473212	0	0	0
24	1	1	0.0	0.0	20.05255888325765	0	0	0
25	1	1	0.0	-0.49999999999999994	20.918584287042087	0	0	0
26	1	1	0.0	0.0	21.784609690826525	0	0	0
27	1	1	0.0	-0.49999999999999994	22.650635094610962	0	0	0
28	1	1	0.0	0.0	23.5166604983954	0	0	0
29	1	1	0.0	-0.49999999999999994	24.382685902179837	0	0	0
30	1	1	0.0	0.0	25.248711305964274	0	0	0
31	1	1	0.0	-0.49999999999999994	26.114736709748712	0	0	0
32	1	1	0.0	0.0	26.98076211353315	0	0	0
33	1	1	0.0	-0.49999999999999994	27.846787517317587	0	0	0
34	1	1	0.0	0.0	28.712812921102024	0	0	0
35	1	1	0.0	-0.49999999999999994	29.578838324886462	0	0	0
36	1	1	0.0	0.0	30.4448637286709	0	0	0
37	1	1	0.0	-0.49999999999999994	31.310889132455337	0	0	0
38	1	1	0.0	0.0	32.17691453623978	0	0	0
39	1	1	0.0	-0.49999999999999994	33.04293994002422	0	0	0
40	1	1	0.0	0.0	33.90896534380866	0	0	0
41	1	1	0.0	-0.49999999999999994	34.7749907475931	0	0	0
42	1	1	0.0	0.0	35.64101615137754	0	0	0
43	1	1	0.0	-0.49999999999999994	36.50704155516198	0	0	0
44	1	1	0.0	0.0	37.373066958946424	0	0	0
45	1	1	0.0	-0.49999999999999994	38.239092362730865	0	0	0
46	1	1	0.0	0.0	39.105117766515306	0	0	0
47	1	1	0.0	-0.49999999999999994	39.97114317029975	0	0	0
48	1	1	0.0	0.0	40.83716857408419	0	0	0
49	1	1	0.0	-0.49999999999999994	41.70319397786863	0	0	0
50	1	1	0.0	0.0	42.56921938165307	0	0	0
51	1	1	0.0	-0.49999999999999994	43.43524478543751	0	0	0
52	1	1	0.0	0.0	44.30127018922195	0	0	0
53	1	1	0.0	-0.49999999999999994	45.16729559300639	0	0	0
54	1	1	0.0	0.0	46.033320996790835	0	0	0
55	1	1	0.0	-0.49999999999999994	46.899346400575276	0	0	0
56	1	1	0.0	0.0	47.76537180435972	0	0	0
57	1	1	0.0	-0.49999999999999994	48.63139720814416	0	0	0
58	1	1	0.0	0.0	49.4974226119286	0	0	0
59	1	1	0.0	-0.49999999999999994	50.36344801571304	0	0	0
60	1	1	0.0	0.0	51.22947341949748	0	0	0
61	1	1	0.0	-0.49999999999999994	52.09549882328192	0	0	0
62	1	1	0.0	0.0	52.96152422706636	0	0	0
63	1	1	0.0	-0.49999999999999994	53.827549630850804	0	0	0
64	1	1	0.0	0.0	54.693575034635245	0	0	0
65	1	1	0.0	-0.49999999999999994	55.559600438419686	0	0	0
66	1	1	0.0	0.0	56.42562584220413	0	0	0
67	1	1	0.0	-0.49999999999999994	57.29165124598857	0	0	0
68	1	1	0.0	0.0	58.15767664977301	0	0	0
69	1	1	0.0	-0.49999999999999994	59.02370205355745	0	0	0
70	1	1	0.0	0.0	59.88972745734189	0	0	0
71	1	1	0.0	-0.49999999999999994	60.75575286112633	0	0	0
72	1	1	0.0	0.0	61.62177826491077	0	0	0
73	1	1	0.0	-0.49999999999999994	62.487803668695214	0	0	0
74	1	1	0.0	0.0	63.353829072479655	0	0	0
75	1	1	0.0	-0.49999999999999994	64.21985447626409	0	0	0
76	1	1	0.0	0.0	65.08587988004852	0	0	0
77	1	1	0.0	-0.49999999999999994	65.95190528383296	0	0	0
78	1	1	0.0	0.0	66.81793068761739	0	0	0
79	1	1	0.0	-0.49999999999999994	67.68395609140183	0	0	0
80	1	1	0.0	0.0	68.54998149518626	0	0	0
81	1	1	0.0	-0.49999999999999994	69.41600689897069	0	0	0
82	1	1	0.0	0.0	70.28203230275513	0	0	0
83	1	1	0.0	-0.49999999999999994	71.14805770653956	0	0	0
84	1	1	0.0	0.0	72.014083110324	0	0	0
85	1	1	0.0	-0.49999999999999994	72.88010851410843	0	0	0
86	1	1	0.0	0.0	73.74613391789286	0	0	0
87	1	1	0.0	-0.49999999999999994	74.6121593216773	0	0	0
88	1	1	0.0	0.0	75.47818472546173	0	0	0
89	1	1	0.0	-0.49999999999999994	76.34421012924616	0	0	0
90	1	1	0.0	0.0	77.2102355330306	0	0	0
91	1	1	0.0	-0.49999999999999994	78.07626093681503	0	0	0
92	1	1	0.0	0.0	78.94228634059947	0	0	0
93	1	1	0.0	-0.49999999999999994	79.8083117443839	0	0	0
94	1	1	0.0	0.0	80.67433714816833	0	0	0
95	1	1	0.0	-0.49999999999999994	81.54036255195277	0	0	0
96	1	1	0.0	0.0	82.4063879557372	0	0	0
97	1	1	0.0	-0.49999999999999994	83.27241335952164	0	0	0
98	1	1	0.0	0.0	84.13843876330607	0	0	0
99	1	1	0.0	-0.49999999999999994	85.0044641670905	0	0	0
100	1	1	0.0	0.0	85.87048957087494	0	0	0
101	1	1	0.0	-0.49999999999999994	86.73651497465937	0	0	0
102	1	1	0.0	0.0	87.6025403784438	0	0	0
103	1	1	0.0	-0.49999999999999994	88.46856578222824	0	0	0
104	1	1	0.0	0.0	89.33459118601267	0	0	0
105	1	1	0.0	-0.49999999999999994	90.20061658979711	0	0	0
106	1	1	0.0	0.0	91.06664199358154	0	0	0
107	1	1	0.0	-0.49999999999999994	91.93266739736598	0	0	0
108	1	1	0.0	0.0	92.79869280115041	0	0	0
109	1	1	0.0	-0.49999999999999994	93.66471820493484	0	0	0
110	1	1	0.0	0.0	94.53074360871928	0	0	0
111	1	1	0.0	-0.49999999999999994	95.39676901250371	0	0	0
112	1	1	0.0	0.0	96.26279441628814	0	0	0
113	1	1	0.0	-0.49999999999999994	97.12881982007258	0	0	0
114	1	1	0.0	0.0	97.99484522385701	0	0	0
115	1	1	0.0	-0.49999999999999994	98.86087062764145	0	0	0
116	1	1	0.0	0.0	99.72689603142588	0	0	0
117	1	1	0.0	-0.49999999999999994	100.59292143521031	0	0	0
118	1	1	0.0	0.0	101.45894683899475	0	0	0
119	1	1	0.0	-0.49999999999999994	102.32497224277918	0	0	0
120	1	1	0.0	0.0	103.19099764656362	0	0	0
121	1	1	0.0	-0.49999999999999994	104.05702305034805	0	0	0
122	1	1	0.0	0.0	104.92304845413248	0	0	0
123	1	1	0.0	-0.49999999999999994	105.78907385791692	0	0	0
124	1	1	0.0	0.0	106.65509926170135	0	0	0
125	1	1	0.0	-0.49999999999999994	107.52112466548579	0	0	0
126	1	1	0.0	0.0	108.38715006927022	0	0	0
127	1	1	0.0	-0.49999999999999994	109.25317547305465	0	0	0
128	1	1	0.0	0.0	110.11920087683909	0	0	0
129	1	1	0.0	-0.49999999999999994	110.98522628062352	0	0	0
130	1	1	0.0	0.0	111.85125168440796	0	0	0
131	1	1	0.0	-0.49999999999999994	112.71727708819239	0	0	0
132	1	1	0.0	0.0	113.58330249197682	0	0	0
133	1	1	0.0	-0.49999999999999994	114.44932789576126	0	0	0
134	1	1	0.0	0.0	115.31535329954569	0	0	0
135	1	1	0.0	-0.49999999999999994	116.18137870333013	0	0	0
136	1	1	0.0	0.0	117.04740410711456	0	0	0
137	1	1	0.0	-0.49999999999999994	117.913429510899	0	0	0
138	1	1	0.0	0.0	118.77945491468343	0	0	0
139	1	1	0.0	-0.49999999999999994	119.64548031846786	0	0	0
140	1	1	0.0	0.0	120.5115057222523	0	0	0
141	1	1	0.0	-0.49999999999999994	121.37753112603673	0	0	0
142	1	1	0.0	0.0	122.24355652982116	0	0	0
143	1	1	0.0	-0.49999999999999994	123.1095819336056	0	0	0
144	1	1	0.0	0.0	123.97560733739003	0	0	0
145	1	1	0.0	-0.49999999999999994	124.84163274117446	0	0	0
146	1	1	0.0	0.0	125.7076581449589	0	0	0
147	1	1	0.0	-0.49999999999999994	126.57368354874333	0	0	0
148	1	1	0.0	0.0	127.43970895252777	0	0	0
149	1	1	0.0	-0.49999999999999994	128.3057343563122	0	0	0
150	1	1	0.0	0.0	129.17175976009665	0	0	0
151	1	1	0.0	-0.49999999999999994	130.0377851638811	0	0	0
152	1	1	0.0	0.0	130.90381056766554	0	0	0
153	1	1	0.0	-0.49999999999999994	131.76983597145	0	0	0
154	1	1	0.0	0.0	132.63586137523444	0	0	0
155	1	1	0.0	-0.49999999999999994	133.5018867790189	0	0	0
156	1	1	0.0	0.0	134.36791218280334	0	0	0
157	1	1	0.0	-0.49999999999999994	135.23393758658779	0	0	0
158	1	1	0.0	0.0	136.09996299037223	0	0	0
159	1	1	0.0	-0.49999999999999994	136.96598839415668	0	0	0
160	1	1	0.0	0.0	137.83201379794113	0	0	0
161	1	1	0.0	-0.49999999999999994	138.69803920172558	0	0	0
162	1	1	0.0	0.0	139.56406460551003	0	0	0
163	1	1	0.0	-0.49999999999999994	140.43009000929447	0	0	0
164	1	1	0.0	0.0	141.29611541307892	0	0	0
165	1	1	0.0	-0.49999999999999994	142.16214081686337	0	0	0
166	1	1	0.0	0.0	143.02816622064782	0	0	0
167	1	1	0.0	-0.49999999999999994	143.89419162443227	0	0	0
168	1	1	0.0	0.0	144.76021702821672	0	0	0
169	1	1	0.0	-0.49999999999999994	145.62624243200116	0	0	0
170	1	1	0.0	0.0	146.4922678357856	0	0	0
171	1	1	0.0	-0.49999999999999994	147.35829323957006	0	0	0
172	1	1	0.0	0.0	148.2243186433545	0	0	0
173	1	1	0.0	-0.49999999999999994	149.09034404713896	0	0	0
174	1	1	0.0	0.0	149.9563694509234	0	0	0
175	1	1	0.0	-0.49999999999999994	150.82239485470785	0	0	0
176	1	1	0.0	0.0	151.6884202584923	0	0	0
177	1	1	0.0	-0.49999999999999994	152.55444566227675	0	0	0
178	1	1	0.0	0.0	153.4204710660612	0	0	0
179	1	1	0.0	-0.49999999999999994	154.28649646984564	0	0	0
180	1	1	0.0	0.0	155.1525218736301	0	0	0
181	1	1	0.0	-0.49999999999999994	156.01854727741454	0	0	0
182	1	1	0.0	0.0	156.884572681199	0	0	0
183	1	1	0.0	-0.49999999999999994	157.75059808498344	0	0	0
184	1	1	0.0	0.0	158.61662348876789	0	0	0
185	1	1	0.0	-0.49999999999999994	159.48264889255233	0	0	0
186	1	1	0.0	0.0	160.34867429633678	0	0	0
187	1	1	0.0	-0.49999999999999994	161.21469970012123	0	0	0
188	1	1	0.0	0.0	162.08072510390568	0	0	0
189	1	1	0.0	-0.49999999999999994	162.94675050769013	0	0	0
190	1	1	0.0	0.0	163.81277591147457	0	0	0
191	1	1	0.0	-0.49999999999999994	164.67880131525902	0	0	0
192	1	1	0.0	0.0	165.54482671904347	0	0	0
193	1	1	0.0	-0.49999999999999994	166.41085212282792	0	0	0
194	1	1	0.0	0.0	167.27687752661237	0	0	0
195	1	1	0.0	-0.49999999999999994	168.14290293039682	0	0	0
196	1	1	0.0	0.0	169.00892833418126	0	0	0
197	1	1	0.0	-0.49999999999999994	169.8749537379657	0	0	0
198	1	1	0.0	0.0	170.74097914175016	0	0	0
199	1	1	0.0	-0.49999999999999994	171.6070045455346	0	0	0
200	1	1	0.0	0.0	172.47302994931906	0	0	0
201	1	1	0.0	-0.49999999999999994	173.3390553531035	0	0	0
202	1	1	0.0	0.0	174.20508075688795	0	0	0
203	1	1	0.0	-0.49999999999999994	175.0711061606724	0	0	0
204	1	1	0.0	0.0	175.93713156445685	0	0	0
205	1	1	0.0	-0.49999999999999994	176.8031569682413	0	0	0
206	1	1	0.0	0.0	177.66918237202574	0	0	0
207	1	1	0.0	-0.49999999999999994	178.5352077758102	0	0	0
208	1	1	0.0	0.0	179.40123317959464	0	0	0
209	1	1	0.0	-0.49999999999999994	180.2672585833791	0	0	0
210	1	1	0.0	0.0	181.13328398716354	0	0	0
211	1	1	0.0	-0.49999999999999994	181.99930939094799	0	0	0
212	1	1	0.0	0.0	182.86533479473243	0	0	0
213	1	1	0.0	-0.49999999999999994	183.73136019851688	0	0	0
214	1	1	0.0	0.0	184.59738560230133	0	0	0
215	1	1	0.0	-0.49999999999999994	185.46341100608578	0	0	0
216	1	1	0.0	0.0	186.32943640987023	0	0	0
217	1	1	0.0	-0.49999999999999994	187.19546181365467	0	0	0
218	1	1	0.0	0.0	188.06148721743912	0	0	0
219	1	1	0.0	-0.49999999999999994	188.92751262122357	0	0	0
220	1	1	0.0	0.0	189.79353802500802	0	0	0
221	1	1	0.0	-0.49999999999999994	190.65956342879247	0	0	0
222	1	1	0.723264044017666	-1.162512838555867	190.8544117323003	0	0	0
223	1	1	1.4465280880353262	-1.833689938832491	190.69189889374442	0	0	0
224	1	1	2.1697921320529865	-2.3100187356012967	191.19189889374442	0	0	0
225	1	1	2.8930561760706466	-2.9811958358779207	191.02938605518855	0	0	0
226	1	1	3.6163202200883067	-3.4575246326467264	191.52938605518855	0	0	0
227	1	1	4.339584264105967	-4.12870173292335	191.36687321663268	0	0	0
228	1	1	5.062848308123627	-4.605030529692155	191.86687321663268	0	0	0
229	1	1	5.786112352141287	-5.276207629968779	191.7043603780768	0	0	0
230	1	1	6.509376396158947	-5.752536426737584	192.2043603780768	0	0	0
231	1	1	7.232640440176607	-6.423713527014208	192.04184753952094	0	0	0
232	1	1	7.955904484194267	-6.900042323783013	192.54184753952094	0	0	0
233	1	1	8.679168528211928	-7.571219424059636	192.37933470096507	0	0	0
234	1	1	9.40243257222959	-8.047548220828443	192.87933470096507	0	0	0
235	1	1	10.12569661624725	-8.718725321105067	192.7168218624092	0	0	0
236	1	1	10.848960660264911	-9.195054117873873	193.2168218624092	0	0	0
237	1	1	11.572224704282572	-9.866231218150498	193.05430902385334	0	0	0
238	1	1	12.295488748300233	-10.342560014919304	193.55430902385334	0	0	0
239	1	1	13.018752792317894	-11.013737115195928	193.39179618529747	0	0	0
240	1	1	13.742016836335555	-11.490065911964734	193.89179618529747	0	0	0
241	1	1	14.465280880353216	-12.161243012241359	193.7292833467416	0	0	0
242	1	1	15.188544924370877	-12.637571809010165	194.2292833467416	0	0	0
243	1	1	15.911808968388538	-13.30874890928679	194.06677050818573	0	0	0
244	1	1	16.6350730124062	-13.785077706055596	194.56677050818573	0	0	0
245	1	1	17.35833705642386	-14.45625480633222	194.40425766962986	0	0	0
246	1	1	18.08160110044152	-14.932583603101026	194.90425766962986	0	0	0
247	1	1	18.804865144459182	-15.60376070337765	194.741744831074	0	0	0
248	1	1	19.528129188476843	-16.080089500146457	195.241744831074	0	0	0
249	1	1	20.251393232494504	-16.75126660042308	195.07923199251812	0	0	0
250	1	1	20.974657276512165	-17.227595397191884	195.57923199251812	0	0	0
251	1	1	21.697921320529826	-17.898772497468507	195.41671915396225	0	0	0
252	1	1	22.421185364547487	-18.37510129423731	195.91671915396225	0	0	0
253	1	1	23.144449408565148	-19.046278394513934	195.75420631540638	0	0	0
254	1	1	23.86771345258281	-19.522607191282738	196.25420631540638	0	0	0
255	1	1	24.59097749660047	-20.19378429155936	196.0916934768505	0	0	0
256	1	1	25.31424154061813	-20.670113088328165	196.5916934768505	0	0	0
257	1	1	26.03750558463579	-21.341290188604788	196.42918063829464	0	0	0
258	1	1	26.760769628653453	-21.817618985373592	196.92918063829464	0	0	0
259	1	1	27.484033672671114	-22.488796085650215	196.76666779973877	0	0	0
260	1	1	28.207297716688775	-22.96512488241902	197.26666779973877	0	0	0
261	1	1	28.930561760706436	-23.63630198269564	197.1041549611829	0	0	0
262	1	1	29.653825804724097	-24.112630779464446	197.6041549611829	0	0	0
263	1	1	30.377089848741758	-24.78380787974107	197.44164212262703	0	0	0
264	1	1	31.10035389275942	-25.260136676509873	197.94164212262703	0	0	0
265	1	1	31.82361793677708	-25.931313776786496	197.77912928407116	0	0	0
266	1	1	32.54688198079474	-26.4076425735553	198.27912928407116	0	0	0
267	1	1	33.2701460248124	-27.078819673831923	198.1166164455153	0	0	0
268	1	1	33.99341006883006	-27.555148470600727	198.6166164455153	0	0	0
269	1	1	34.71667411284772	-28.22632557087735	198.45410360695942	0	0	0
270	1	1	35.43993815686538	-28.702654367646154	198.95410360695942	0	0	0
271	1	1	36.16320220088304	-29.373831467922777	198.79159076840355	0	0	0
272	1	1	36.8864662449007	-29.85016026469158	199.29159076840355	0	0	0
273	1	1	37.609730288918364	-30.521337364968204	199.12907792984768	0	0	0
274	1	1	38.332994332936025	-30.99766616173701	199.62907792984768	0	0	0
275	1	1	39.056258376953686	-31.66884326201363	199.4665650912918	0	0	0
276	1	1	39.77952242097135	-32.145172058782435	199.9665650912918	0	0	0
277	1	1	40.50278646498901	-32.81634915905906	199.80405225273594	0	0	0
278	1	1	41.22605050900667	-33.29267795582786	200.30405225273594	0	0	0
279	1	1	41.94931455302433	-33.963855056104485	200.14153941418007	0	0	0
280	1	1	42.67257859704199	-34.44018385287329	200.64153941418007	0	0	0
281	1	1	43.39584264105965	-35.11136095314991	200.4790265756242	0	0	0
282	1	1	44.11910668507731	-35.58768974991872	200.9790265756242	0	0	0
283	1	1	44.842370729094974	-36.25886685019534	200.81651373706833	0	0	0
284	1	1	45.565634773112635	-36.735195646964144	201.31651373706833	0	0	0
285	1	1	46.288898817130296	-37.406372747240766	201.15400089851246	0	0	0
286	1	1	47.01216286114796	-37.88270154400957	201.65400089851246	0	0	0
287	1	1	47.73542690516562	-38.55387864428619	201.4914880599566	0	0	0
288	1	1	48.45869094918328	-39.030207441055	201.9914880599566	0	0	0
289	1	1	49.18195499320094	-39.70138454133162	201.82897522140073	0	0	0
290	1	1	49.9052190372186	-40.177713338100425	202.32897522140073	0	0	0
291	1	1	50.62848308123626	-40.84889043837705	202.16646238284486	0	0	0
292	1	1	51.35174712525392	-41.32521923514585	202.66646238284486	0	0	0
293	1	1	52.07501116927158	-41.996396335422475	202.503949544289	0	0	0
294	1	1	52.798275213289244	-42.47272513219128	203.003949544289	0	0	0
295	1	1	53.521539257306905	-43.1439022324679	202.84143670573312	0	0	0
296	1	1	54.244803301324566	-43.620231029236706	203.34143670573312	0	0	0
297	1	1	54.96806734534223	-44.29140812951333	203.17892386717725	0	0	0
298	1	1	55.69133138935989	-44.76773692628213	203.67892386717725	0	0	0
299	1	1	56.41459543337755	-45.438914026558756	203.51641102862138	0	0	0
300	1	1	57.13785947739521	-45.91524282332756	204.01641102862138	0	0	0
301	1	1	57.86112352141287	-46.58641992360418	203.8538981900655	0	0	0
302	1	1	58.58438756543053	-47.06274872037299	204.3538981900655	0	0	0
303	1	1	59.30765160944819	-47.73392582064961	204.19138535150964	0	0	0
304	1	1	60.030915653465854	-48.210254617418414	204.69138535150964	0	0	0
305	1	1	60.754179697483515	-48.88143171769504	204.52887251295377	0	0	0
306	1	1	61.477443741501176	-49.35776051446384	205.02887251295377	0	0	0
307	1	1	62.20070778551884	-50.028937614740464	204.8663596743979	0	0	0
308	1	1	62.9239718295365	-50.50526641150927	205.3663596743979	0	0	0
309	1	1	63.64723587355416	-51.17644351178589	205.20384683584203	0	0	0
310	1	1	64.37049991757182	-51.652772308554695	205.70384683584203	0	0	0
311	1	1	65.09376396158947	-52.32394940883132	205.54133399728616	0	0	0
312	1	1	65.81702800560713	-52.80027820560012	206.04133399728616	0	0	0
313	1	1	66.54029204962478	-53.471455305876745	205.8788211587303	0	0	0
314	1	1	67.26355609364244	-53.94778410264555	206.3788211587303	0	0	0
315	1	1	67.98682013766009	-54.61896120292217	206.21630832017442	0	0	0
316	1	1	68.71008418167774	-55.095289999690976	206.71630832017442	0	0	0
317	1	1	69.4333482256954	-55.7664670999676	206.55379548161855	0	0	0
318	1	1	70.15661226971305	-56.2427958967364	207.05379548161855	0	0	0
319	1	1	70.8798763137307	-56.913972997013026	206.89128264306268	0	0	0
320	1	1	71.60314035774836	-57.39030179378183	207.39128264306268	0	0	0
321	1	1	72.32640440176601	-58.06147889405845	207.2287698045068	0	0	0
322	1	1	73.04966844578367	-58.53780769082726	207.7287698045068	0	0	0
323	1	1	73.77293248980132	-59.20898479110388	207.56625696595094	0	0	0
324	1	1	74.49619653381897	-59.685313587872685	208.06625696595094	0	0	0
325	1	1	75.21946057783663	-60.35649068814931	207.90374412739507	0	0	0
326	1	1	75.94272462185428	-60.83281948491811	208.40374412739507	0	0	0
327	1	1	76.66598866587194	-61.503996585194734	208.2412312888392	0	0	0
328	1	1	77.38925270988959	-61.98032538196354	208.7412312888392	0	0	0
329	1	1	78.11251675390724	-62.65150248224016	208.57871845028333	0	0	0
330	1	1	78.8357807979249	-63.127831279008966	209.07871845028333	0	0	0
331	1	1	79.55904484194255	-63.79900837928559	208.91620561172746	0	0	0
332	1	1	80.2823088859602	-64.27533717605439	209.41620561172746	0	0	0
333	1	1	81.00557292997786	-64.94651427633102	209.2536927731716	0	0	0
334	1	1	81.72883697399551	-65.42284307309983	209.7536927731716	0	0	0
335	1	1	82.45210101801317	-66.09402017337645	209.59117993461572	0	0	0
336	1	1	83.17536506203082	-66.57034897014526	210.09117993461572	0	0	0
337	1	1	83.89862910604847	-67.24152607042188	209.92866709605985	0	0	0
338	1	1	84.62189315006613	-67.7178548671907	210.42866709605985	0	0	0
339	1	1	85.34515719408378	-68.38903196746732	210.26615425750398	0	0	0
340	1	1	86.06842123810144	-68.86536076423613	210.76615425750398	0	0	0
341	1	1	86.79168528211909	-69.53653786451275	210.60364141894811	0	0	0
342	1	1	87.51494932613674	-70.01286666128156	211.10364141894811	0	0	0
343	1	1	88.2382133701544	-70.68404376155819	210.94112858039225	0	0	0
344	1	1	88.96147741417205	-71.160372558327	211.44112858039225	0	0	0
345	1	1	89.6847414581897	-71.83154965860362	211.27861574183638	0	0	0
346	1	1	90.40800550220736	-72.30787845537243	211.77861574183638	0	0	0
347	1	1	91.13126954622501	-72.97905555564905	211.6161029032805	0	0	0
348	1	1	91.85453359024267	-73.45538435241787	212.1161029032805	0	0	0
349	1	1	92.57779763426032	-74.12656145269449	211.95359006472464	0	0	0
350	1	1	93.30106167827797	-74.6028902494633	212.45359006472464	0	0	0
351	1	1	94.02432572229563	-75.27406734973992	212.29107722616877	0	0	0
352	1	1	94.74758976631328	-75.75039614650873	212.79107722616877	0	0	0
353	1	1	95.47085381033094	-76.42157324678536	212.6285643876129	0	0	0
354	1	1	96.19411785434859	-76.89790204355417	213.1285643876129	0	0	0
355	1	1	96.91738189836624	-77.56907914383079	212.96605154905703	0	0	0
356	1	1	97.6406459423839	-78.0454079405996	213.46605154905703	0	0	0
357	1	1	98.36390998640155	-78.71658504087623	213.30353871050116	0	0	0
358	1	1	99.0871740304192	-79.19291383764504	213.80353871050116	0	0	0
359	1	1	99.81043807443686	-79.86409093792166	213.6410258719453	0	0	0
360	1	1	100.53370211845451	-80.34041973469047	214.1410258719453	0	0	0
361	1	1	101.25696616247217	-81.0115968349671	213.97851303338942	0	0	0
362	1	1	101.98023020648982	-81.4879256317359	214.47851303338942	0	0	0
363	1	1	102.70349425050748	-82.15910273201253	214.31600019483355	0	0	0
364	1	1	103.42675829452513	-82.63543152878134	214.81600019483355	0	0	0
365	1	1	104.15002233854278	-83.30660862905796	214.65348735627768	0	0	0
366	1	1	104.87328638256044	-83.78293742582677	215.15348735627768	0	0	0
367	1	1	105.59655042657809	-84.4541145261034	214.9909745177218	0	0	0
368	1	1	106.31981447059574	-84.93044332287221	215.4909745177218	0	0	0
369	1	1	107.0430785146134	-85.60162042314883	215.32846167916594	0	0	0
370	1	1	107.76634255863105	-86.07794921991764	215.82846167916594	0	0	0
371	1	1	108.4896066026487	-86.74912632019426	215.66594884061007	0	0	0
372	1	1	109.21287064666636	-87.22545511696308	216.16594884061007	0	0	0
373	1	1	109.93613469068401	-87.8966322172397	216.0034360020542	0	0	0
374	1	1	110.65939873470167	-88.37296101400851	216.5034360020542	0	0	0
375	1	1	111.38266277871932	-89.04413811428513	216.34092316349833	0	0	0
376	1	1	112.10592682273698	-89.52046691105394	216.84092316349833	0	0	0
377	1	1	112.82919086675463	-90.19164401133057	216.67841032494246	0	0	0
378	1	1	113.55245491077228	-90.66797280809938	217.17841032494246	0	0	0
379	1	1	114.27571895478994	-91.339149908376	217.0158974863866	0	0	0
380	1	1	114.99898299880759	-91.81547870514481	217.5158974863866	0	0	0
381	1	1	115.72224704282524	-92.48665580542144	217.35338464783072	0	0	0
382	1	1	116.4455110868429	-92.96298460219025	217.85338464783072	0	0	0
383	1	1	117.16877513086055	-93.63416170246687	217.69087180927485	0	0	0
384	1	1	117.8920391748782	-94.11049049923568	218.19087180927485	0	0	0
385	1	1	118.61530321889586	-94.7816675995123	218.02835897071898	0	0	0
386	1	1	119.33856726291351	-95.25799639628111	218.52835897071898	0	0	0
387	1	1	120.06183130693117	-95.92917349655774	218.3658461321631	0	0	0
388	1	1	120.78509535094882	-96.40550229332655	218.8658461321631	0	0	0
389	1	1	121.50835939496648	-97.07667939360317	218.70333329360724	0	0	0
390	1	1	122.23162343898413	-97.55300819037198	219.20333329360724	0	0	0
391	1	1	122.95488748300178	-98.2241852906486	219.04082045505137	0	0	0
392	1	1	123.67815152701944	-98.70051408741742	219.54082045505137	0	0	0
393	1	1	124.40141557103709	-99.37169118769404	219.3783076164955	0	0	0
394	1	1	125.12467961505475	-99.84801998446285	219.8783076164955	0	0	0
395	1	1	125.8479436590724	-100.51919708473947	219.71579477793964	0	0	0
396	1	1	126.57120770309005	-100.99552588150829	220.21579477793964	0	0	0
397	1	1	127.2944717471077	-101.66670298178491	220.05328193938377	0	0	0
398	1	1	128.01773579112538	-102.14303177855372	220.55328193938377	0	0	0
399	1	1	128.74099983514304	-102.81420887883034	220.3907691008279	0	0	0
400	1	1	129.4642638791607	-103.29053767559915	220.8907691008279	0	0	0
401	1	1	130.18752792317838	-103.96171477587578	220.72825626227203	0	0	0
402	1	1	130.91079196719605	-104.43804357264459	221.22825626227203	0	0	0
403	1	1	131.63405601121372	-105.10922067292121	221.06574342371616	0	0	0
404	1	1	132.35732005523138	-105.58554946969002	221.56574342371616	0	0	0
405	1	1	133.08058409924905	-106.25672656996665	221.4032305851603	0	0	0
406	1	1	133.80384814326672	-106.73305536673546	221.9032305851603	0	0	0
407	1	1	134.5271121872844	-107.40423246701208	221.74071774660442	0	0	0
408	1	1	135.25037623130206	-107.88056126378089	222.24071774660442	0	0	0
409	1	1	135.97364027531972	-108.55173836405751	222.07820490804855	0	0	0
410	1	1	136.6969043193374	-109.02806716082632	222.57820490804855	0	0	0
411	1	1	137.42016836335506	-109.69924426110295	222.41569206949268	0	0	0
412	1	1	138.14343240737273	-110.17557305787176	222.91569206949268	0	0	0
413	1	1	138.8666964513904	-110.84675015814838	222.7531792309368	0	0	0
414	1	1	139.58996049540806	-111.3230789549172	223.2531792309368	0	0	0
415	1	1	140.31322453942573	-111.99425605519382	223.09066639238094	0	0	0
416	1	1	141.0364885834434	-112.47058485196263	223.59066639238094	0	0	0
417	1	1	141.75975262746107	-113.14176195223925	223.42815355382507	0	0	0
418	1	1	142.48301667147874	-113.61809074900806	223.92815355382507	0	0	0
419	1	1	143.2062807154964	-114.28926784928468	223.7656407152692	0	0	0
420	1	1	143.92954475951407	-114.7655966460535	224.2656407152692	0	0	0
421	1	1	144.65280880353174	-115.43677374633012	224.10312787671333	0	0	0
422	1	1	145.3760728475494	-115.91310254309893	224.60312787671333	0	0	0
423	1	1	146.09933689156708	-116.58427964337555	224.44061503815746	0	0	0
424	1	1	146.82260093558475	-117.06060844014436	224.94061503815746	0	0	0
425	1	1	147.5458649796024	-117.73178554042099	224.7781021996016	0	0	0
426	1	1	148.26912902362008	-118.2081143371898	225.2781021996016	0	0	0
427	1	1	148.99239306763775	-118.87929143746642	225.11558936104572	0	0	0
428	1	1	149.71565711165542	-119.35562023423523	225.61558936104572	0	0	0
429	1	1	150.43892115567309	-120.02679733451185	225.45307652248985	0	0	0
430	1	1	151.16218519969075	-120.50312613128067	225.95307652248985	0	0	0
431	1	1	151.88544924370842	-121.17430323155729	225.79056368393398	0	0	0
432	1	1	152.6087132877261	-121.6506320283261	226.29056368393398	0	0	0
433	1	1	153.33197733174376	-122.32180912860272	226.1280508453781	0	0	0
434	1	1	154.05524137576143	-122.79813792537153	226.6280508453781	0	0	0
435	1	1	154.7785054197791	-123.46931502564816	226.46553800682224	0	0	0
436	1	1	155.50176946379676	-123.94564382241697	226.96553800682224	0	0	0
437	1	1	156.22503350781443	-124.61682092269359	226.80302516826637	0	0	0
438	1	1	156.9482975518321	-125.0931497194624	227.30302516826637	0	0	0
439	1	1	157.67156159584977	-125.76432681973903	227.1405123297105	0	0	0
440	1	1	158.39482563986743	-126.24065561650784	227.6405123297105	0	0	0
441	1	1	159.1180896838851	-126.91183271678446	227.47799949115463	0	0	0
442	1	1	-0.7232640440176655	-0.33748716144413343	191.3307405290691	0	0	0
443	1	1	-1.4465280880353255	-0.5323354649519463	191.99325336762496	0	0	0
444	1	1	-2.1697921320529856	-0.05600666818313643	192.49325336762496	0	0	0
445	1	1	-2.8930561760706457	-0.2508549716909493	193.15576620618083	0	0	0
446	1	1	-3.616320220088306	0.22547382507786057	193.65576620618083	0	0	0
447	1	1	-4.339584264105966	0.030625521570047692	194.3182790447367	0	0	0
448	1	1	-5.062848308123626	0.5069543183388575	194.8182790447367	0	0	0
449	1	1	-5.786112352141286	0.3121060148310446	195.48079188329257	0	0	0
450	1	1	-6.509376396158946	0.7884348115998545	195.98079188329257	0	0	0
451	1	1	-7.232640440176606	0.5935865080920416	196.64330472184844	0	0	0
452	1	1	-7.955904484194266	1.0699153048608514	197.14330472184844	0	0	0
453	1	1	-8.679168528211926	0.8750670013530385	197.8058175604043	0	0	0
454	1	1	-9.402432572229586	1.3513957981218483	198.3058175604043	0	0	0
455	1	1	-10.125696616247245	1.1565474946140355	198.96833039896018	0	0	0
456	1	1	-10.848960660264904	1.6328762913828454	199.46833039896018	0	0	0
457	1	1	-11.572224704282563	1.4380279878750326	200.13084323751605	0	0	0
458	1	1	-12.295488748300222	1.9143567846438425	200.63084323751605	0	0	0
459	1	1	-13.018752792317882	1.7195084811360297	201.29335607607192	0	0	0
460	1	1	-13.74201683633554	2.1958372779048396	201.79335607607192	0	0	0
461	1	1	-14.4652808803532	2.0009889743970266	202.45586891462779	0	0	0
462	1	1	-15.18854492437086	2.4773177711658363	202.95586891462779	0	0	0
463	1	1	-15.911808968388518	2.2824694676580233	203.61838175318366	0	0	0
464	1	1	-16.635073012406178	2.758798264426833	204.11838175318366	0	0	0
465	1	1	-17.35833705642384	2.56394996091902	204.78089459173952	0	0	0
466	1	1	-18.0816011004415	3.0402787576878296	205.28089459173952	0	0	0
467	1	1	-18.80486514445916	2.8454304541800166	205.9434074302954	0	0	0
468	1	1	-19.52812918847682	3.3217592509488263	206.4434074302954	0	0	0
469	1	1	-20.251393232494483	3.1269109474410133	207.10592026885126	0	0	0
470	1	1	-20.974657276512144	3.603239744209823	207.60592026885126	0	0	0
471	1	1	-21.697921320529804	3.40839144070201	208.26843310740713	0	0	0
472	1	1	-22.421185364547465	3.8847202374708196	208.76843310740713	0	0	0
473	1	1	-23.144449408565126	3.6898719339630066	209.430945945963	0	0	0
474	1	1	-23.867713452582787	4.166200730731816	209.930945945963	0	0	0
475	1	1	-24.59097749660045	3.9713524272240033	210.59345878451887	0	0	0
476	1	1	-25.31424154061811	4.447681223992813	211.09345878451887	0	0	0
477	1	1	-26.03750558463577	4.252832920485	211.75597162307474	0	0	0
478	1	1	-26.76076962865343	4.72916171725381	212.25597162307474	0	0	0
479	1	1	-27.484033672671092	4.534313413745997	212.9184844616306	0	0	0
480	1	1	-28.207297716688753	5.010642210514806	213.4184844616306	0	0	0
481	1	1	-28.930561760706414	4.815793907006993	214.08099730018648	0	0	0
482	1	1	-29.653825804724075	5.292122703775803	214.58099730018648	0	0	0
483	1	1	-30.377089848741736	5.09727440026799	215.24351013874235	0	0	0
484	1	1	-31.100353892759397	5.5736031970368	215.74351013874235	0	0	0
485	1	1	-31.823617936777058	5.378754893528987	216.40602297729822	0	0	0
486	1	1	-32.546881980794716	5.855083690297796	216.90602297729822	0	0	0
487	1	1	-33.27014602481238	5.660235386789983	217.5685358158541	0	0	0
488	1	1	-33.99341006883004	6.136564183558793	218.0685358158541	0	0	0
489	1	1	-34.7166741128477	5.94171588005098	218.73104865440996	0	0	0
490	1	1	-35.43993815686536	6.41804467681979	219.23104865440996	0	0	0
491	1	1	-36.16320220088302	6.223196373311977	219.89356149296583	0	0	0
492	1	1	-36.88646624490068	6.699525170080786	220.39356149296583	0	0	0