bb80nuc1bl40bn5d30tot200V2

201 atoms
200 bonds
205 angles

1 atom types
1 bond types
1 angle types

-1000 1000 xlo xhi
-1000 1000 ylo yhi
-1000 1000 zlo zhi

Masses

1 1

Atoms

1	1	1	0.0	0.0	0.0	0	0	0
2	1	1	0.0	0.0	1.0	0	0	0
3	1	1	0.0	-0.49999999999999994	1.8660254037844388	0	0	0
4	1	1	0.0	0.0	2.7320508075688776	0	0	0
5	1	1	0.0	-0.49999999999999994	3.5980762113533165	0	0	0
6	1	1	0.0	0.0	4.464101615137755	0	0	0
7	1	1	0.0	-0.49999999999999994	5.330127018922194	0	0	0
8	1	1	0.0	0.0	6.196152422706632	0	0	0
9	1	1	0.0	-0.49999999999999994	7.06217782649107	0	0	0
10	1	1	0.0	0.0	7.928203230275509	0	0	0
11	1	1	0.0	-0.49999999999999994	8.794228634059948	0	0	0
12	1	1	0.0	0.0	9.660254037844387	0	0	0
13	1	1	0.0	-0.49999999999999994	10.526279441628827	0	0	0
14	1	1	0.0	0.0	11.392304845413266	0	0	0
15	1	1	0.0	-0.49999999999999994	12.258330249197705	0	0	0
16	1	1	0.0	0.0	13.124355652982144	0	0	0
17	1	1	0.0	-0.49999999999999994	13.990381056766584	0	0	0
18	1	1	0.0	0.0	14.856406460551023	0	0	0
19	1	1	0.0	-0.49999999999999994	15.722431864335462	0	0	0
20	1	1	0.0	0.0	16.5884572681199	0	0	0
21	1	1	0.0	-0.49999999999999994	17.454482671904337	0	0	0
22	1	1	0.0	0.0	18.320508075688775	0	0	0
23	1	1	0.0	-0.49999999999999994	19.186533479473212	0	0	0
24	1	1	0.0	0.0	20.05255888325765	0	0	0
25	1	1	0.0	-0.49999999999999994	20.918584287042087	0	0	0
26	1	1	0.0	0.0	21.784609690826525	0	0	0
27	1	1	0.0	-0.49999999999999994	22.650635094610962	0	0	0
28	1	1	0.0	0.0	23.5166604983954	0	0	0
29	1	1	0.0	-0.49999999999999994	24.382685902179837	0	0	0
30	1	1	0.0	0.0	25.248711305964274	0	0	0
31	1	1	0.0	-0.49999999999999994	26.114736709748712	0	0	0
32	1	1	0.0	0.0	26.98076211353315	0	0	0
33	1	1	0.0	-0.49999999999999994	27.846787517317587	0	0	0
34	1	1	0.0	0.0	28.712812921102024	0	0	0
35	1	1	0.0	-0.49999999999999994	29.578838324886462	0	0	0
36	1	1	0.0	0.0	30.4448637286709	0	0	0
37	1	1	0.0	-0.49999999999999994	31.310889132455337	0	0	0
38	1	1	0.0	0.0	32.17691453623978	0	0	0
39	1	1	0.0	-0.49999999999999994	33.04293994002422	0	0	0
40	1	1	0.0	0.0	33.90896534380866	0	0	0
41	1	1	0.0	-0.49999999999999994	34.7749907475931	0	0	0
42	1	1	0.3175504342209321	-1.4477616292793523	34.8051505849907	0	0	0
43	1	1	0.6351008684418635	-2.283627195666197	34.35738895571135	0	0	0
44	1	1	0.952651302662795	-3.089332924655446	34.85738895571135	0	0	0
45	1	1	1.2702017368837264	-3.925198491042291	34.409627326432	0	0	0
46	1	1	1.5877521711046578	-4.730904220031539	34.909627326432	0	0	0
47	1	1	1.9053026053255893	-5.566769786418384	34.46186569715265	0	0	0
48	1	1	2.2228530395465205	-6.372475515407633	34.96186569715265	0	0	0
49	1	1	2.540403473767452	-7.208341081794478	34.514104067873305	0	0	0
50	1	1	2.8579539079883833	-8.014046810783727	35.014104067873305	0	0	0
51	1	1	3.1755043422093148	-8.849912377170572	34.566342438593956	0	0	0
52	1	1	3.493054776430246	-9.655618106159821	35.066342438593956	0	0	0
53	1	1	3.8106052106511776	-10.491483672546666	34.61858080931461	0	0	0
54	1	1	4.128155644872109	-11.297189401535915	35.11858080931461	0	0	0
55	1	1	4.44570607909304	-12.13305496792276	34.67081918003526	0	0	0
56	1	1	4.763256513313971	-12.93876069691201	35.17081918003526	0	0	0
57	1	1	5.080806947534902	-13.774626263298854	34.72305755075591	0	0	0
58	1	1	5.398357381755833	-14.580331992288103	35.22305755075591	0	0	0
59	1	1	5.715907815976764	-15.416197558674948	34.77529592147656	0	0	0
60	1	1	6.033458250197695	-16.221903287664198	35.27529592147656	0	0	0
61	1	1	6.351008684418626	-17.05776885405104	34.827534292197214	0	0	0
62	1	1	6.668559118639557	-17.86347458304029	35.327534292197214	0	0	0
63	1	1	6.986109552860488	-18.699340149427133	34.879772662917865	0	0	0
64	1	1	7.303659987081419	-19.505045878416382	35.379772662917865	0	0	0
65	1	1	7.62121042130235	-20.340911444803226	34.93201103363852	0	0	0
66	1	1	7.938760855523281	-21.146617173792475	35.43201103363852	0	0	0
67	1	1	8.256311289744213	-21.982482740179318	34.98424940435917	0	0	0
68	1	1	8.573861723965145	-22.788188469168567	35.48424940435917	0	0	0
69	1	1	8.891412158186077	-23.62405403555541	35.03648777507982	0	0	0
70	1	1	9.208962592407008	-24.42975976454466	35.53648777507982	0	0	0
71	1	1	9.52651302662794	-25.265625330931503	35.08872614580047	0	0	0
72	1	1	9.844063460848872	-26.07133105992075	35.58872614580047	0	0	0
73	1	1	10.161613895069804	-26.907196626307595	35.14096451652112	0	0	0
74	1	1	10.479164329290736	-27.712902355296844	35.64096451652112	0	0	0
75	1	1	10.796714763511668	-28.548767921683687	35.193202887241775	0	0	0
76	1	1	11.1142651977326	-29.354473650672936	35.693202887241775	0	0	0
77	1	1	11.431815631953532	-30.19033921705978	35.245441257962426	0	0	0
78	1	1	11.749366066174463	-30.99604494604903	35.745441257962426	0	0	0
79	1	1	12.066916500395395	-31.831910512435872	35.29767962868308	0	0	0
80	1	1	12.384466934616327	-32.63761624142512	35.79767962868308	0	0	0
81	1	1	12.702017368837259	-33.473481807811964	35.34991799940373	0	0	0
82	1	1	-0.31755043422093093	-0.052238370720647465	35.610856313979944	0	0	0
83	1	1	-0.6351008684418611	-0.08239820811824095	36.55861794325929	0	0	0
84	1	1	-0.9526513026627912	0.7233075208710094	37.05861794325929	0	0	0
85	1	1	-1.2702017368837213	0.6931476834734159	38.00637957253864	0	0	0
86	1	1	-1.5877521711046514	1.4988534124626662	38.50637957253864	0	0	0
87	1	1	-1.9053026053255815	1.4686935750650727	39.45414120181799	0	0	0
88	1	1	-2.2228530395465116	2.274399304054323	39.95414120181799	0	0	0
89	1	1	-2.5404034737674417	2.2442394666567296	40.90190283109734	0	0	0
90	1	1	-2.857953907988372	3.04994519564598	41.40190283109734	0	0	0
91	1	1	-3.175504342209302	3.0197853582483867	42.34966446037669	0	0	0
92	1	1	-3.493054776430232	3.825491087237637	42.84966446037669	0	0	0
93	1	1	-3.810605210651162	3.7953312498400438	43.797426089656035	0	0	0
94	1	1	-4.128155644872092	4.601036978829294	44.297426089656035	0	0	0
95	1	1	-4.445706079093022	4.5708771414317	45.245187718935384	0	0	0
96	1	1	-4.763256513313952	5.37658287042095	45.745187718935384	0	0	0
97	1	1	-5.0808069475348825	5.346423033023357	46.69294934821473	0	0	0
98	1	1	-5.398357381755813	6.152128762012607	47.19294934821473	0	0	0
99	1	1	-5.715907815976743	6.121968924615014	48.14071097749408	0	0	0
100	1	1	-6.033458250197673	6.927674653604264	48.64071097749408	0	0	0
101	1	1	-6.351008684418603	6.89751481620667	49.58847260677343	0	0	0
102	1	1	-6.668559118639533	7.70322054519592	50.08847260677343	0	0	0
103	1	1	-6.986109552860463	7.673060707798327	51.03623423605278	0	0	0
104	1	1	-7.303659987081393	8.478766436787577	51.53623423605278	0	0	0
105	1	1	-7.621210421302323	8.448606599389983	52.483995865332126	0	0	0
106	1	1	-7.938760855523253	9.254312328379234	52.983995865332126	0	0	0
107	1	1	-8.256311289744184	9.22415249098164	53.931757494611475	0	0	0
108	1	1	-8.573861723965114	10.02985821997089	54.431757494611475	0	0	0
109	1	1	-8.891412158186045	9.999698382573296	55.37951912389082	0	0	0
110	1	1	-9.208962592406975	10.805404111562547	55.87951912389082	0	0	0
111	1	1	-9.526513026627905	10.775244274164953	56.82728075317017	0	0	0
112	1	1	-9.844063460848835	11.580950003154204	57.32728075317017	0	0	0
113	1	1	-10.161613895069765	11.55079016575661	58.27504238244952	0	0	0
114	1	1	-10.479164329290695	12.35649589474586	58.77504238244952	0	0	0
115	1	1	-10.796714763511625	12.326336057348266	59.72280401172887	0	0	0
116	1	1	-11.114265197732555	13.132041786337517	60.22280401172887	0	0	0
117	1	1	-11.431815631953485	13.101881948939923	61.17056564100822	0	0	0
118	1	1	-11.749366066174415	13.907587677929174	61.67056564100822	0	0	0
119	1	1	-12.066916500395346	13.87742784053158	62.618327270287566	0	0	0
120	1	1	-12.384466934616276	14.68313356952083	63.118327270287566	0	0	0
121	1	1	-12.702017368837206	14.652973732123236	64.06608889956692	0	0	0
122	1	1	-0.9303488390391337	-0.8175504342209315	34.59165291891436	0	0	0
123	1	1	-1.8606976780782674	-1.0008882628996694	34.27410248469343	0	0	0
124	1	1	-2.791046517117401	-1.367563920257144	34.27410248469343	0	0	0
125	1	1	-3.7213953561565347	-1.5509017489358816	33.956552050472496	0	0	0
126	1	1	-4.651744195195668	-1.9175774062933562	33.956552050472496	0	0	0
127	1	1	-5.582093034234802	-2.100915234972094	33.63900161625156	0	0	0
128	1	1	-6.512441873273936	-2.4675908923295684	33.63900161625156	0	0	0
129	1	1	-7.442790712313069	-2.650928721008306	33.32145118203063	0	0	0
130	1	1	-8.373139551352203	-3.0176043783657804	33.32145118203063	0	0	0
131	1	1	-9.303488390391337	-3.200942207044518	33.003900747809695	0	0	0
132	1	1	-10.23383722943047	-3.5676178644019925	33.003900747809695	0	0	0
133	1	1	-11.164186068469604	-3.75095569308073	32.68635031358876	0	0	0
134	1	1	-12.094534907508738	-4.117631350438205	32.68635031358876	0	0	0
135	1	1	-13.024883746547872	-4.300969179116943	32.36879987936783	0	0	0
136	1	1	-13.955232585587005	-4.667644836474418	32.36879987936783	0	0	0
137	1	1	-14.885581424626139	-4.850982665153156	32.051249445146894	0	0	0
138	1	1	-15.815930263665273	-5.217658322510631	32.051249445146894	0	0	0
139	1	1	-16.746279102704406	-5.400996151189369	31.733699010925964	0	0	0
140	1	1	-17.67662794174354	-5.767671808546844	31.733699010925964	0	0	0
141	1	1	-18.606976780782674	-5.951009637225582	31.416148576705034	0	0	0
142	1	1	-19.537325619821807	-6.317685294583057	31.416148576705034	0	0	0
143	1	1	-20.46767445886094	-6.5010231232617945	31.098598142484104	0	0	0
144	1	1	-21.398023297900075	-6.8676987806192695	31.098598142484104	0	0	0
145	1	1	-22.32837213693921	-7.0510366092980075	30.781047708263173	0	0	0
146	1	1	-23.258720975978342	-7.4177122666554824	30.781047708263173	0	0	0
147	1	1	-24.189069815017476	-7.60105009533422	30.463497274042243	0	0	0
148	1	1	-25.11941865405661	-7.967725752691695	30.463497274042243	0	0	0
149	1	1	-26.049767493095743	-8.151063581370433	30.145946839821313	0	0	0
150	1	1	-26.980116332134877	-8.517739238727907	30.145946839821313	0	0	0
151	1	1	-27.91046517117401	-8.701077067406645	29.828396405600383	0	0	0
152	1	1	-28.840814010213144	-9.06775272476412	29.828396405600383	0	0	0
153	1	1	-29.771162849252278	-9.251090553442857	29.510845971379453	0	0	0
154	1	1	-30.70151168829141	-9.617766210800331	29.510845971379453	0	0	0
155	1	1	-31.631860527330545	-9.80110403947907	29.193295537158523	0	0	0
156	1	1	-32.56220936636968	-10.167779696836543	29.193295537158523	0	0	0
157	1	1	-33.49255820540881	-10.351117525515281	28.875745102937593	0	0	0
158	1	1	-34.422907044447946	-10.717793182872756	28.875745102937593	0	0	0
159	1	1	-35.35325588348708	-10.901131011551493	28.558194668716663	0	0	0
160	1	1	-36.28360472252621	-11.267806668908968	28.558194668716663	0	0	0
161	1	1	-37.21395356156535	-11.451144497587705	28.240644234495733	0	0	0
162	1	1	0.9303488390391337	-0.18244956577906835	34.95832857627184	0	0	0
163	1	1	1.8606976780782674	0.0008882628996693676	35.27587901049277	0	0	0
164	1	1	2.791046517117401	0.36756392025714396	35.27587901049277	0	0	0
165	1	1	3.7213953561565347	0.5509017489358816	35.593429444713706	0	0	0
166	1	1	4.651744195195668	0.9175774062933562	35.593429444713706	0	0	0
167	1	1	5.582093034234802	1.1009152349720939	35.91097987893464	0	0	0
168	1	1	6.512441873273936	1.4675908923295684	35.91097987893464	0	0	0
169	1	1	7.442790712313069	1.6509287210083061	36.228530313155574	0	0	0
170	1	1	8.373139551352203	2.017604378365781	36.228530313155574	0	0	0
171	1	1	9.303488390391337	2.200942207044519	36.54608074737651	0	0	0
172	1	1	10.23383722943047	2.5676178644019934	36.54608074737651	0	0	0
173	1	1	11.164186068469604	2.750955693080731	36.86363118159744	0	0	0
174	1	1	12.094534907508738	3.1176313504382054	36.86363118159744	0	0	0
175	1	1	13.024883746547872	3.300969179116943	37.181181615818375	0	0	0
176	1	1	13.955232585587005	3.6676448364744174	37.181181615818375	0	0	0
177	1	1	14.885581424626139	3.850982665153155	37.49873205003931	0	0	0
178	1	1	15.815930263665273	4.21765832251063	37.49873205003931	0	0	0
179	1	1	16.746279102704406	4.400996151189368	37.81628248426024	0	0	0
180	1	1	17.67662794174354	4.767671808546843	37.81628248426024	0	0	0
181	1	1	18.606976780782674	4.951009637225581	38.133832918481176	0	0	0
182	1	1	19.537325619821807	5.317685294583056	38.133832918481176	0	0	0
183	1	1	20.46767445886094	5.501023123261794	38.45138335270211	0	0	0
184	1	1	21.398023297900075	5.867698780619269	38.45138335270211	0	0	0
185	1	1	22.32837213693921	6.051036609298007	38.76893378692304	0	0	0
186	1	1	23.258720975978342	6.417712266655482	38.76893378692304	0	0	0
187	1	1	24.189069815017476	6.6010500953342195	39.08648422114398	0	0	0
188	1	1	25.11941865405661	6.9677257526916945	39.08648422114398	0	0	0
189	1	1	26.049767493095743	7.151063581370432	39.40403465536491	0	0	0
190	1	1	26.980116332134877	7.517739238727907	39.40403465536491	0	0	0
191	1	1	27.91046517117401	7.701077067406645	39.721585089585844	0	0	0
192	1	1	28.840814010213144	8.06775272476412	39.721585089585844	0	0	0
193	1	1	29.771162849252278	8.251090553442857	40.03913552380678	0	0	0
194	1	1	30.70151168829141	8.617766210800331	40.03913552380678	0	0	0
195	1	1	31.631860527330545	8.80110403947907	40.35668595802771	0	0	0
196	1	1	32.56220936636968	9.167779696836543	40.35668595802771	0	0	0
197	1	1	33.49255820540881	9.351117525515281	40.674236392248645	0	0	0
198	1	1	34.422907044447946	9.717793182872756	40.674236392248645	0	0	0
199	1	1	35.35325588348708	9.901131011551493	40.99178682646958	0	0	0
200	1	1	36.28360472252621	10.267806668908968	40.99178682646958	0	0	0
201	1	1	37.21395356156535	10.451144497587705	41.30933726069051	0	0	0

Bonds

1	1	1	2
2	1	2	3
3	1	3	4
4	1	4	5
5	1	5	6
6	1	6	7
7	1	7	8
8	1	8	9
9	1	9	10
10	1	10	11
11	1	11	12
12	1	12	13
13	1	13	14
14	1	14	15
15	1	15	16
16	1	16	17
17	1	17	18
18	1	18	19
19	1	19	20
20	1	20	21
21	1	21	22
22	1	22	23
23	1	23	24
24	1	24	25
25	1	25	26
26	1	26	27
27	1	27	28
28	1	28	29
29	1	29	30
30	1	30	31
31	1	31	32
32	1	32	33
33	1	33	34
34	1	34	35
35	1	35	36
36	1	36	37
37	1	37	38
38	1	38	39
39	1	39	40
40	1	40	41
41	1	41	42
42	1	41	82
43	1	41	122
44	1	41	162
45	1	42	43
46	1	43	44
47	1	44	45
48	1	45	46
49	1	46	47
50	1	47	48
51	1	48	49
52	1	49	50
53	1	50	51
54	1	51	52
55	1	52	53
56	1	53	54
57	1	54	55
58	1	55	56
59	1	56	57
60	1	57	58
61	1	58	59
62	1	59	60
63	1	60	61
64	1	61	62
65	1	62	63
66	1	63	64
67	1	64	65
68	1	65	66
69	1	66	67
70	1	67	68
71	1	68	69
72	1	69	70
73	1	70	71
74	1	71	72
75	1	72	73
76	1	73	74
77	1	74	75
78	1	75	76
79	1	76	77
80	1	77	78
81	1	78	79
82	1	79	80
83	1	80	81
84	1	82	83
85	1	83	84
86	1	84	85
87	1	85	86
88	1	86	87
89	1	87	88
90	1	88	89
91	1	89	90
92	1	90	91
93	1	91	92
94	1	92	93
95	1	93	94
96	1	94	95
97	1	95	96
98	1	96	97
99	1	97	98
100	1	98	99
101	1	99	100
102	1	100	101
103	1	101	102
104	1	102	103
105	1	103	104
106	1	104	105
107	1	105	106
108	1	106	107
109	1	107	108
110	1	108	109
111	1	109	110
112	1	110	111
113	1	111	112
114	1	112	113
115	1	113	114
116	1	114	115
117	1	115	116
118	1	116	117
119	1	117	118
120	1	118	119
121	1	119	120
122	1	120	121
123	1	122	123
124	1	123	124
125	1	124	125
126	1	125	126
127	1	126	127
128	1	127	128
129	1	128	129
130	1	129	130
131	1	130	131
132	1	131	132
133	1	132	133
134	1	133	134
135	1	134	135
136	1	135	136
137	1	136	137
138	1	137	138
139	1	138	139
140	1	139	140
141	1	140	141
142	1	141	142
143	1	142	143
144	1	143	144
145	1	144	145
146	1	145	146
147	1	146	147
148	1	147	148
149	1	148	149
150	1	149	150
151	1	150	151
152	1	151	152
153	1	152	153
154	1	153	154
155	1	154	155
156	1	155	156
157	1	156	157
158	1	157	158
159	1	158	159
160	1	159	160
161	1	160	161
162	1	162	163
163	1	163	164
164	1	164	165
165	1	165	166
166	1	166	167
167	1	167	168
168	1	168	169
169	1	169	170
170	1	170	171
171	1	171	172
172	1	172	173
173	1	173	174
174	1	174	175
175	1	175	176
176	1	176	177
177	1	177	178
178	1	178	179
179	1	179	180
180	1	180	181
181	1	181	182
182	1	182	183
183	1	183	184
184	1	184	185
185	1	185	186
186	1	186	187
187	1	187	188
188	1	188	189
189	1	189	190
190	1	190	191
191	1	191	192
192	1	192	193
193	1	193	194
194	1	194	195
195	1	195	196
196	1	196	197
197	1	197	198
198	1	198	199
199	1	199	200
200	1	200	201

Angles

1	1	1	2	3
2	1	2	3	4
3	1	3	4	5
4	1	4	5	6
5	1	5	6	7
6	1	6	7	8
7	1	7	8	9
8	1	8	9	10
9	1	9	10	11
10	1	10	11	12
11	1	11	12	13
12	1	12	13	14
13	1	13	14	15
14	1	14	15	16
15	1	15	16	17
16	1	16	17	18
17	1	17	18	19
18	1	18	19	20
19	1	19	20	21
20	1	20	21	22
21	1	21	22	23
22	1	22	23	24
23	1	23	24	25
24	1	24	25	26
25	1	25	26	27
26	1	26	27	28
27	1	27	28	29
28	1	28	29	30
29	1	29	30	31
30	1	30	31	32
31	1	31	32	33
32	1	32	33	34
33	1	33	34	35
34	1	34	35	36
35	1	35	36	37
36	1	36	37	38
37	1	37	38	39
38	1	38	39	40
39	1	39	40	41
40	1	40	41	42
41	1	40	41	82
42	1	40	41	122
43	1	40	41	162
44	1	41	42	43
45	1	41	82	83
46	1	41	122	123
47	1	41	162	163
48	1	42	41	82
49	1	42	41	122
50	1	42	41	162
51	1	42	43	44
52	1	43	44	45
53	1	44	45	46
54	1	45	46	47
55	1	46	47	48
56	1	47	48	49
57	1	48	49	50
58	1	49	50	51
59	1	50	51	52
60	1	51	52	53
61	1	52	53	54
62	1	53	54	55
63	1	54	55	56
64	1	55	56	57
65	1	56	57	58
66	1	57	58	59
67	1	58	59	60
68	1	59	60	61
69	1	60	61	62
70	1	61	62	63
71	1	62	63	64
72	1	63	64	65
73	1	64	65	66
74	1	65	66	67
75	1	66	67	68
76	1	67	68	69
77	1	68	69	70
78	1	69	70	71
79	1	70	71	72
80	1	71	72	73
81	1	72	73	74
82	1	73	74	75
83	1	74	75	76
84	1	75	76	77
85	1	76	77	78
86	1	77	78	79
87	1	78	79	80
88	1	79	80	81
89	1	82	41	122
90	1	82	41	162
91	1	82	83	84
92	1	83	84	85
93	1	84	85	86
94	1	85	86	87
95	1	86	87	88
96	1	87	88	89
97	1	88	89	90
98	1	89	90	91
99	1	90	91	92
100	1	91	92	93
101	1	92	93	94
102	1	93	94	95
103	1	94	95	96
104	1	95	96	97
105	1	96	97	98
106	1	97	98	99
107	1	98	99	100
108	1	99	100	101
109	1	100	101	102
110	1	101	102	103
111	1	102	103	104
112	1	103	104	105
113	1	104	105	106
114	1	105	106	107
115	1	106	107	108
116	1	107	108	109
117	1	108	109	110
118	1	109	110	111
119	1	110	111	112
120	1	111	112	113
121	1	112	113	114
122	1	113	114	115
123	1	114	115	116
124	1	115	116	117
125	1	116	117	118
126	1	117	118	119
127	1	118	119	120
128	1	119	120	121
129	1	122	41	162
130	1	122	123	124
131	1	123	124	125
132	1	124	125	126
133	1	125	126	127
134	1	126	127	128
135	1	127	128	129
136	1	128	129	130
137	1	129	130	131
138	1	130	131	132
139	1	131	132	133
140	1	132	133	134
141	1	133	134	135
142	1	134	135	136
143	1	135	136	137
144	1	136	137	138
145	1	137	138	139
146	1	138	139	140
147	1	139	140	141
148	1	140	141	142
149	1	141	142	143
150	1	142	143	144
151	1	143	144	145
152	1	144	145	146
153	1	145	146	147
154	1	146	147	148
155	1	147	148	149
156	1	148	149	150
157	1	149	150	151
158	1	150	151	152
159	1	151	152	153
160	1	152	153	154
161	1	153	154	155
162	1	154	155	156
163	1	155	156	157
164	1	156	157	158
165	1	157	158	159
166	1	158	159	160
167	1	159	160	161
168	1	162	163	164
169	1	163	164	165
170	1	164	165	166
171	1	165	166	167
172	1	166	167	168
173	1	167	168	169
174	1	168	169	170
175	1	169	170	171
176	1	170	171	172
177	1	171	172	173
178	1	172	173	174
179	1	173	174	175
180	1	174	175	176
181	1	175	176	177
182	1	176	177	178
183	1	177	178	179
184	1	178	179	180
185	1	179	180	181
186	1	180	181	182
187	1	181	182	183
188	1	182	183	184
189	1	183	184	185
190	1	184	185	186
191	1	185	186	187
192	1	186	187	188
193	1	187	188	189
194	1	188	189	190
195	1	189	190	191
196	1	190	191	192
197	1	191	192	193
198	1	192	193	194
199	1	193	194	195
200	1	194	195	196
201	1	195	196	197
202	1	196	197	198
203	1	197	198	199
204	1	198	199	200
205	1	199	200	201
