bb160nuc1bl80bn5d30tot400V2

401 atoms
400 bonds
405 angles

1 atom types
1 bond types
1 angle types

-1000 1000 xlo xhi
-1000 1000 ylo yhi
-1000 1000 zlo zhi

Masses

1 1

Atoms

1	1	1	0.0	0.0	0.0	0	0	0
2	1	1	0.0	0.0	1.0	0	0	0
3	1	1	0.0	-0.49999999999999994	1.8660254037844388	0	0	0
4	1	1	0.0	0.0	2.7320508075688776	0	0	0
5	1	1	0.0	-0.49999999999999994	3.5980762113533165	0	0	0
6	1	1	0.0	0.0	4.464101615137755	0	0	0
7	1	1	0.0	-0.49999999999999994	5.330127018922194	0	0	0
8	1	1	0.0	0.0	6.196152422706632	0	0	0
9	1	1	0.0	-0.49999999999999994	7.06217782649107	0	0	0
10	1	1	0.0	0.0	7.928203230275509	0	0	0
11	1	1	0.0	-0.49999999999999994	8.794228634059948	0	0	0
12	1	1	0.0	0.0	9.660254037844387	0	0	0
13	1	1	0.0	-0.49999999999999994	10.526279441628827	0	0	0
14	1	1	0.0	0.0	11.392304845413266	0	0	0
15	1	1	0.0	-0.49999999999999994	12.258330249197705	0	0	0
16	1	1	0.0	0.0	13.124355652982144	0	0	0
17	1	1	0.0	-0.49999999999999994	13.990381056766584	0	0	0
18	1	1	0.0	0.0	14.856406460551023	0	0	0
19	1	1	0.0	-0.49999999999999994	15.722431864335462	0	0	0
20	1	1	0.0	0.0	16.5884572681199	0	0	0
21	1	1	0.0	-0.49999999999999994	17.454482671904337	0	0	0
22	1	1	0.0	0.0	18.320508075688775	0	0	0
23	1	1	0.0	-0.49999999999999994	19.186533479473212	0	0	0
24	1	1	0.0	0.0	20.05255888325765	0	0	0
25	1	1	0.0	-0.49999999999999994	20.918584287042087	0	0	0
26	1	1	0.0	0.0	21.784609690826525	0	0	0
27	1	1	0.0	-0.49999999999999994	22.650635094610962	0	0	0
28	1	1	0.0	0.0	23.5166604983954	0	0	0
29	1	1	0.0	-0.49999999999999994	24.382685902179837	0	0	0
30	1	1	0.0	0.0	25.248711305964274	0	0	0
31	1	1	0.0	-0.49999999999999994	26.114736709748712	0	0	0
32	1	1	0.0	0.0	26.98076211353315	0	0	0
33	1	1	0.0	-0.49999999999999994	27.846787517317587	0	0	0
34	1	1	0.0	0.0	28.712812921102024	0	0	0
35	1	1	0.0	-0.49999999999999994	29.578838324886462	0	0	0
36	1	1	0.0	0.0	30.4448637286709	0	0	0
37	1	1	0.0	-0.49999999999999994	31.310889132455337	0	0	0
38	1	1	0.0	0.0	32.17691453623978	0	0	0
39	1	1	0.0	-0.49999999999999994	33.04293994002422	0	0	0
40	1	1	0.0	0.0	33.90896534380866	0	0	0
41	1	1	0.0	-0.49999999999999994	34.7749907475931	0	0	0
42	1	1	0.0	0.0	35.64101615137754	0	0	0
43	1	1	0.0	-0.49999999999999994	36.50704155516198	0	0	0
44	1	1	0.0	0.0	37.373066958946424	0	0	0
45	1	1	0.0	-0.49999999999999994	38.239092362730865	0	0	0
46	1	1	0.0	0.0	39.105117766515306	0	0	0
47	1	1	0.0	-0.49999999999999994	39.97114317029975	0	0	0
48	1	1	0.0	0.0	40.83716857408419	0	0	0
49	1	1	0.0	-0.49999999999999994	41.70319397786863	0	0	0
50	1	1	0.0	0.0	42.56921938165307	0	0	0
51	1	1	0.0	-0.49999999999999994	43.43524478543751	0	0	0
52	1	1	0.0	0.0	44.30127018922195	0	0	0
53	1	1	0.0	-0.49999999999999994	45.16729559300639	0	0	0
54	1	1	0.0	0.0	46.033320996790835	0	0	0
55	1	1	0.0	-0.49999999999999994	46.899346400575276	0	0	0
56	1	1	0.0	0.0	47.76537180435972	0	0	0
57	1	1	0.0	-0.49999999999999994	48.63139720814416	0	0	0
58	1	1	0.0	0.0	49.4974226119286	0	0	0
59	1	1	0.0	-0.49999999999999994	50.36344801571304	0	0	0
60	1	1	0.0	0.0	51.22947341949748	0	0	0
61	1	1	0.0	-0.49999999999999994	52.09549882328192	0	0	0
62	1	1	0.0	0.0	52.96152422706636	0	0	0
63	1	1	0.0	-0.49999999999999994	53.827549630850804	0	0	0
64	1	1	0.0	0.0	54.693575034635245	0	0	0
65	1	1	0.0	-0.49999999999999994	55.559600438419686	0	0	0
66	1	1	0.0	0.0	56.42562584220413	0	0	0
67	1	1	0.0	-0.49999999999999994	57.29165124598857	0	0	0
68	1	1	0.0	0.0	58.15767664977301	0	0	0
69	1	1	0.0	-0.49999999999999994	59.02370205355745	0	0	0
70	1	1	0.0	0.0	59.88972745734189	0	0	0
71	1	1	0.0	-0.49999999999999994	60.75575286112633	0	0	0
72	1	1	0.0	0.0	61.62177826491077	0	0	0
73	1	1	0.0	-0.49999999999999994	62.487803668695214	0	0	0
74	1	1	0.0	0.0	63.353829072479655	0	0	0
75	1	1	0.0	-0.49999999999999994	64.21985447626409	0	0	0
76	1	1	0.0	0.0	65.08587988004852	0	0	0
77	1	1	0.0	-0.49999999999999994	65.95190528383296	0	0	0
78	1	1	0.0	0.0	66.81793068761739	0	0	0
79	1	1	0.0	-0.49999999999999994	67.68395609140183	0	0	0
80	1	1	0.0	0.0	68.54998149518626	0	0	0
81	1	1	0.0	-0.49999999999999994	69.41600689897069	0	0	0
82	1	1	0.5968274117929099	-0.2065409119359331	70.16278585165026	0	0	0
83	1	1	1.1936548235858222	-0.3257873630408149	70.95624493971432	0	0	0
84	1	1	1.7904822353787346	0.3017451385338622	71.45624493971432	0	0	0
85	1	1	2.387309647171647	0.1824986874289804	72.24970402777839	0	0	0
86	1	1	2.9841370589645595	0.8100311890036576	72.74970402777839	0	0	0
87	1	1	3.580964470757472	0.6907847378987757	73.54316311584246	0	0	0
88	1	1	4.177791882550384	1.3183172394734528	74.04316311584246	0	0	0
89	1	1	4.774619294343296	1.199070788368571	74.83662220390653	0	0	0
90	1	1	5.371446706136208	1.826603289943248	75.33662220390653	0	0	0
91	1	1	5.96827411792912	1.7073568388383662	76.1300812919706	0	0	0
92	1	1	6.565101529722032	2.334889340413043	76.6300812919706	0	0	0
93	1	1	7.161928941514944	2.2156428893081612	77.42354038003467	0	0	0
94	1	1	7.758756353307856	2.8431753908828385	77.92354038003467	0	0	0
95	1	1	8.355583765100768	2.7239289397779567	78.71699946809873	0	0	0
96	1	1	8.95241117689368	3.351461441352634	79.21699946809873	0	0	0
97	1	1	9.549238588686592	3.232214990247752	80.0104585561628	0	0	0
98	1	1	10.146066000479504	3.8597474918224295	80.5104585561628	0	0	0
99	1	1	10.742893412272416	3.7405010407175476	81.30391764422687	0	0	0
100	1	1	11.339720824065328	4.368033542292225	81.80391764422687	0	0	0
101	1	1	11.93654823585824	4.248787091187343	82.59737673229094	0	0	0
102	1	1	12.533375647651152	4.87631959276202	83.09737673229094	0	0	0
103	1	1	13.130203059444064	4.757073141657139	83.89083582035501	0	0	0
104	1	1	13.727030471236976	5.384605643231816	84.39083582035501	0	0	0
105	1	1	14.323857883029888	5.265359192126934	85.18429490841908	0	0	0
106	1	1	14.9206852948228	5.892891693701611	85.68429490841908	0	0	0
107	1	1	15.517512706615712	5.7736452425967295	86.47775399648314	0	0	0
108	1	1	16.114340118408624	6.401177744171407	86.97775399648314	0	0	0
109	1	1	16.711167530201536	6.281931293066525	87.77121308454721	0	0	0
110	1	1	17.307994941994448	6.909463794641202	88.27121308454721	0	0	0
111	1	1	17.90482235378736	6.7902173435363204	89.06467217261128	0	0	0
112	1	1	18.50164976558027	7.417749845110998	89.56467217261128	0	0	0
113	1	1	19.098477177373184	7.298503394006116	90.35813126067535	0	0	0
114	1	1	19.695304589166096	7.926035895580793	90.85813126067535	0	0	0
115	1	1	20.292132000959008	7.806789444475911	91.65159034873942	0	0	0
116	1	1	20.88895941275192	8.434321946050588	92.15159034873942	0	0	0
117	1	1	21.48578682454483	8.315075494945706	92.94504943680349	0	0	0
118	1	1	22.082614236337744	8.942607996520383	93.44504943680349	0	0	0
119	1	1	22.679441648130656	8.823361545415501	94.23850852486756	0	0	0
120	1	1	23.276269059923568	9.450894046990179	94.73850852486756	0	0	0
121	1	1	23.87309647171648	9.331647595885297	95.53196761293162	0	0	0
122	1	1	24.46992388350939	9.959180097459974	96.03196761293162	0	0	0
123	1	1	25.066751295302304	9.839933646355092	96.82542670099569	0	0	0
124	1	1	25.663578707095215	10.46746614792977	97.32542670099569	0	0	0
125	1	1	26.260406118888127	10.348219696824888	98.11888578905976	0	0	0
126	1	1	26.85723353068104	10.975752198399565	98.61888578905976	0	0	0
127	1	1	27.45406094247395	10.856505747294683	99.41234487712383	0	0	0
128	1	1	28.050888354266863	11.48403824886936	99.91234487712383	0	0	0
129	1	1	28.647715766059775	11.364791797764479	100.7058039651879	0	0	0
130	1	1	29.244543177852687	11.992324299339156	101.2058039651879	0	0	0
131	1	1	29.8413705896456	11.873077848234274	101.99926305325197	0	0	0
132	1	1	30.43819800143851	12.500610349808952	102.49926305325197	0	0	0
133	1	1	31.035025413231423	12.38136389870407	103.29272214131603	0	0	0
134	1	1	31.631852825024335	13.008896400278747	103.79272214131603	0	0	0
135	1	1	32.22868023681725	12.889649949173865	104.5861812293801	0	0	0
136	1	1	32.82550764861016	13.517182450748543	105.0861812293801	0	0	0
137	1	1	33.42233506040308	13.39793599964366	105.87964031744417	0	0	0
138	1	1	34.019162472195994	14.025468501218338	106.37964031744417	0	0	0
139	1	1	34.61598988398891	13.906222050113456	107.17309940550824	0	0	0
140	1	1	35.212817295781825	14.533754551688133	107.67309940550824	0	0	0
141	1	1	35.80964470757474	14.414508100583252	108.46655849357231	0	0	0
142	1	1	36.406472119367656	15.042040602157929	108.96655849357231	0	0	0
143	1	1	37.00329953116057	14.922794151053047	109.76001758163638	0	0	0
144	1	1	37.60012694295349	15.550326652627724	110.26001758163638	0	0	0
145	1	1	38.1969543547464	15.431080201522843	111.05347666970044	0	0	0
146	1	1	38.79378176653932	16.05861270309752	111.55347666970044	0	0	0
147	1	1	39.390609178332234	15.939366251992638	112.34693575776451	0	0	0
148	1	1	39.98743659012515	16.566898753567315	112.84693575776451	0	0	0
149	1	1	40.584264001918065	16.447652302462433	113.64039484582858	0	0	0
150	1	1	41.18109141371098	17.07518480403711	114.14039484582858	0	0	0
151	1	1	41.777918825503896	16.95593835293223	114.93385393389265	0	0	0
152	1	1	42.37474623729681	17.583470854506906	115.43385393389265	0	0	0
153	1	1	42.97157364908973	17.464224403402024	116.22731302195672	0	0	0
154	1	1	43.56840106088264	18.0917569049767	116.72731302195672	0	0	0
155	1	1	44.16522847267556	17.97251045387182	117.52077211002079	0	0	0
156	1	1	44.762055884468474	18.600042955446497	118.02077211002079	0	0	0
157	1	1	45.35888329626139	18.480796504341615	118.81423119808485	0	0	0
158	1	1	45.955710708054305	19.108329005916293	119.31423119808485	0	0	0
159	1	1	46.55253811984722	18.98908255481141	120.10769028614892	0	0	0
160	1	1	47.149365531640136	19.616615056386088	120.60769028614892	0	0	0
161	1	1	47.74619294343305	19.497368605281206	121.40114937421299	0	0	0
162	1	1	-0.5968274117929033	-1.293459088064072	69.53525335007556	0	0	0
163	1	1	-1.1936548235858089	-2.040238040743633	69.24179426201148	0	0	0
164	1	1	-1.7904822353787146	-2.6677705423183182	69.74179426201148	0	0	0
165	1	1	-2.3873096471716204	-3.414549494997879	69.4483351739474	0	0	0
166	1	1	-2.984137058964526	-4.0420819965725645	69.9483351739474	0	0	0
167	1	1	-3.580964470757432	-4.7888609492521255	69.65487608588332	0	0	0
168	1	1	-4.177791882550338	-5.416393450826811	70.15487608588332	0	0	0
169	1	1	-4.7746192943432435	-6.163172403506372	69.86141699781923	0	0	0
170	1	1	-5.371446706136149	-6.790704905081057	70.36141699781923	0	0	0
171	1	1	-5.968274117929055	-7.537483857760618	70.06795790975515	0	0	0
172	1	1	-6.565101529721961	-8.165016359335304	70.56795790975515	0	0	0
173	1	1	-7.161928941514867	-8.911795312014865	70.27449882169107	0	0	0
174	1	1	-7.758756353307772	-9.539327813589551	70.77449882169107	0	0	0
175	1	1	-8.355583765100677	-10.286106766269112	70.48103973362699	0	0	0
176	1	1	-8.952411176893582	-10.913639267843799	70.98103973362699	0	0	0
177	1	1	-9.549238588686487	-11.66041822052336	70.6875806455629	0	0	0
178	1	1	-10.146066000479392	-12.287950722098046	71.1875806455629	0	0	0
179	1	1	-10.742893412272297	-13.034729674777607	70.89412155749882	0	0	0
180	1	1	-11.339720824065202	-13.662262176352293	71.39412155749882	0	0	0
181	1	1	-11.936548235858107	-14.409041129031854	71.10066246943474	0	0	0
182	1	1	-12.533375647651011	-15.03657363060654	71.60066246943474	0	0	0
183	1	1	-13.130203059443916	-15.783352583286101	71.30720338137066	0	0	0
184	1	1	-13.727030471236821	-16.410885084860787	71.80720338137066	0	0	0
185	1	1	-14.323857883029726	-17.15766403754035	71.51374429330657	0	0	0
186	1	1	-14.920685294822631	-17.785196539115034	72.01374429330657	0	0	0
187	1	1	-15.517512706615536	-18.531975491794597	71.72028520524249	0	0	0
188	1	1	-16.114340118408442	-19.15950799336928	72.22028520524249	0	0	0
189	1	1	-16.711167530201347	-19.906286946048844	71.92682611717841	0	0	0
190	1	1	-17.307994941994252	-20.53381944762353	72.42682611717841	0	0	0
191	1	1	-17.904822353787157	-21.28059840030309	72.13336702911432	0	0	0
192	1	1	-18.501649765580062	-21.908130901877776	72.63336702911432	0	0	0
193	1	1	-19.098477177372967	-22.65490985455734	72.33990794105024	0	0	0
194	1	1	-19.695304589165872	-23.282442356132023	72.83990794105024	0	0	0
195	1	1	-20.292132000958777	-24.029221308811586	72.54644885298616	0	0	0
196	1	1	-20.88895941275168	-24.65675381038627	73.04644885298616	0	0	0
197	1	1	-21.485786824544586	-25.403532763065833	72.75298976492208	0	0	0
198	1	1	-22.08261423633749	-26.031065264640517	73.25298976492208	0	0	0
199	1	1	-22.679441648130396	-26.77784421732008	72.959530676858	0	0	0
200	1	1	-23.2762690599233	-27.405376718894765	73.459530676858	0	0	0
201	1	1	-23.873096471716206	-28.152155671574327	73.16607158879391	0	0	0
202	1	1	-24.46992388350911	-28.77968817314901	73.66607158879391	0	0	0
203	1	1	-25.066751295302016	-29.526467125828574	73.37261250072983	0	0	0
204	1	1	-25.66357870709492	-30.15399962740326	73.87261250072983	0	0	0
205	1	1	-26.260406118887825	-30.90077858008282	73.57915341266575	0	0	0
206	1	1	-26.85723353068073	-31.528311081657506	74.07915341266575	0	0	0
207	1	1	-27.454060942473635	-32.27509003433707	73.78569432460166	0	0	0
208	1	1	-28.05088835426654	-32.90262253591175	74.28569432460166	0	0	0
209	1	1	-28.647715766059445	-33.649401488591316	73.99223523653758	0	0	0
210	1	1	-29.24454317785235	-34.276933990166	74.49223523653758	0	0	0
211	1	1	-29.841370589645255	-35.02371294284556	74.1987761484735	0	0	0
212	1	1	-30.43819800143816	-35.65124544442025	74.6987761484735	0	0	0
213	1	1	-31.035025413231065	-36.39802439709981	74.40531706040942	0	0	0
214	1	1	-31.63185282502397	-37.025556898674495	74.90531706040942	0	0	0
215	1	1	-32.22868023681688	-37.77233585135406	74.61185797234533	0	0	0
216	1	1	-32.825507648609786	-38.39986835292874	75.11185797234533	0	0	0
217	1	1	-33.422335060402695	-39.146647305608305	74.81839888428125	0	0	0
218	1	1	-34.0191624721956	-39.77417980718299	75.31839888428125	0	0	0
219	1	1	-34.61598988398851	-40.52095875986255	75.02493979621717	0	0	0
220	1	1	-35.21281729578142	-41.148491261437236	75.52493979621717	0	0	0
221	1	1	-35.80964470757433	-41.8952702141168	75.23148070815309	0	0	0
222	1	1	-36.40647211936724	-42.52280271569148	75.73148070815309	0	0	0
223	1	1	-37.003299531160145	-43.269581668371046	75.438021620089	0	0	0
224	1	1	-37.600126942953054	-43.89711416994573	75.938021620089	0	0	0
225	1	1	-38.19695435474596	-44.64389312262529	75.64456253202492	0	0	0
226	1	1	-38.79378176653887	-45.27142562419998	76.14456253202492	0	0	0
227	1	1	-39.39060917833178	-46.01820457687954	75.85110344396084	0	0	0
228	1	1	-39.98743659012469	-46.645737078454225	76.35110344396084	0	0	0
229	1	1	-40.584264001917596	-47.39251603113379	76.05764435589676	0	0	0
230	1	1	-41.181091413710504	-48.02004853270847	76.55764435589676	0	0	0
231	1	1	-41.77791882550341	-48.766827485388035	76.26418526783267	0	0	0
232	1	1	-42.37474623729632	-49.39435998696272	76.76418526783267	0	0	0
233	1	1	-42.97157364908923	-50.14113893964228	76.47072617976859	0	0	0
234	1	1	-43.56840106088214	-50.768671441216966	76.97072617976859	0	0	0
235	1	1	-44.16522847267505	-51.51545039389653	76.67726709170451	0	0	0
236	1	1	-44.762055884467955	-52.142982895471214	77.17726709170451	0	0	0
237	1	1	-45.35888329626086	-52.889761848150776	76.88380800364042	0	0	0
238	1	1	-45.95571070805377	-53.51729434972546	77.38380800364042	0	0	0
239	1	1	-46.55253811984668	-54.26407330240502	77.09034891557634	0	0	0
240	1	1	-47.14936553163959	-54.89160580397971	77.59034891557634	0	0	0
241	1	1	-47.7461929434325	-55.63838475665927	77.29688982751226	0	0	0
242	1	1	0.7246121174187594	-1.0968274117929115	69.0714284321123	0	0	0
243	1	1	1.4492242348375188	-1.4414058786512958	68.47460102031938	0	0	0
244	1	1	2.173836352256278	-2.130562812368067	68.47460102031938	0	0	0
245	1	1	2.8984484696750377	-2.475141279226451	67.87777360852647	0	0	0
246	1	1	3.6230605870937973	-3.164298212943222	67.87777360852647	0	0	0
247	1	1	4.347672704512557	-3.5088766798016064	67.28094619673355	0	0	0
248	1	1	5.072284821931317	-4.198033613518378	67.28094619673355	0	0	0
249	1	1	5.796896939350076	-4.542612080376762	66.68411878494064	0	0	0
250	1	1	6.521509056768836	-5.231769014093533	66.68411878494064	0	0	0
251	1	1	7.2461211741875955	-5.576347480951918	66.08729137314772	0	0	0
252	1	1	7.970733291606355	-6.265504414668689	66.08729137314772	0	0	0
253	1	1	8.695345409025114	-6.610082881527073	65.4904639613548	0	0	0
254	1	1	9.419957526443874	-7.299239815243844	65.4904639613548	0	0	0
255	1	1	10.144569643862633	-7.643818282102228	64.89363654956189	0	0	0
256	1	1	10.869181761281393	-8.332975215819	64.89363654956189	0	0	0
257	1	1	11.593793878700152	-8.677553682677384	64.29680913776897	0	0	0
258	1	1	12.318405996118912	-9.366710616394155	64.29680913776897	0	0	0
259	1	1	13.043018113537672	-9.711289083252538	63.69998172597606	0	0	0
260	1	1	13.767630230956431	-10.400446016969308	63.69998172597606	0	0	0
261	1	1	14.492242348375191	-10.745024483827692	63.10315431418314	0	0	0
262	1	1	15.21685446579395	-11.434181417544462	63.10315431418314	0	0	0
263	1	1	15.94146658321271	-11.778759884402845	62.50632690239023	0	0	0
264	1	1	16.66607870063147	-12.467916818119615	62.50632690239023	0	0	0
265	1	1	17.390690818050228	-12.812495284977999	61.90949949059731	0	0	0
266	1	1	18.115302935468986	-13.501652218694769	61.90949949059731	0	0	0
267	1	1	18.839915052887743	-13.846230685553152	61.3126720788044	0	0	0
268	1	1	19.5645271703065	-14.535387619269923	61.3126720788044	0	0	0
269	1	1	20.28913928772526	-14.879966086128306	60.71584466701148	0	0	0
270	1	1	21.013751405144017	-15.569123019845076	60.71584466701148	0	0	0
271	1	1	21.738363522562775	-15.91370148670346	60.119017255218566	0	0	0
272	1	1	22.462975639981533	-16.60285842042023	60.119017255218566	0	0	0
273	1	1	23.18758775740029	-16.947436887278613	59.52218984342565	0	0	0
274	1	1	23.91219987481905	-17.636593820995383	59.52218984342565	0	0	0
275	1	1	24.636811992237806	-17.981172287853767	58.925362431632735	0	0	0
276	1	1	25.361424109656564	-18.670329221570537	58.925362431632735	0	0	0
277	1	1	26.086036227075322	-19.01490768842892	58.32853501983982	0	0	0
278	1	1	26.81064834449408	-19.70406462214569	58.32853501983982	0	0	0
279	1	1	27.535260461912838	-20.048643089004074	57.731707608046904	0	0	0
280	1	1	28.259872579331596	-20.737800022720844	57.731707608046904	0	0	0
281	1	1	28.984484696750354	-21.082378489579227	57.13488019625399	0	0	0
282	1	1	29.70909681416911	-21.771535423295997	57.13488019625399	0	0	0
283	1	1	30.43370893158787	-22.11611389015438	56.53805278446107	0	0	0
284	1	1	31.158321049006627	-22.80527082387115	56.53805278446107	0	0	0
285	1	1	31.882933166425385	-23.149849290729534	55.94122537266816	0	0	0
286	1	1	32.607545283844146	-23.839006224446305	55.94122537266816	0	0	0
287	1	1	33.332157401262904	-24.183584691304688	55.34439796087524	0	0	0
288	1	1	34.05676951868166	-24.872741625021458	55.34439796087524	0	0	0
289	1	1	34.78138163610042	-25.21732009187984	54.747570549082326	0	0	0
290	1	1	35.50599375351918	-25.90647702559661	54.747570549082326	0	0	0
291	1	1	36.230605870937936	-26.251055492454995	54.15074313728941	0	0	0
292	1	1	36.955217988356694	-26.940212426171765	54.15074313728941	0	0	0
293	1	1	37.67983010577545	-27.28479089303015	53.553915725496495	0	0	0
294	1	1	38.40444222319421	-27.97394782674692	53.553915725496495	0	0	0
295	1	1	39.12905434061297	-28.318526293605302	52.95708831370358	0	0	0
296	1	1	39.853666458031725	-29.007683227322072	52.95708831370358	0	0	0
297	1	1	40.57827857545048	-29.352261694180456	52.360260901910664	0	0	0
298	1	1	41.30289069286924	-30.041418627897226	52.360260901910664	0	0	0
299	1	1	42.027502810288	-30.38599709475561	51.76343349011775	0	0	0
300	1	1	42.75211492770676	-31.07515402847238	51.76343349011775	0	0	0
301	1	1	43.476727045125514	-31.419732495330763	51.16660607832483	0	0	0
302	1	1	44.20133916254427	-32.10888942904754	51.16660607832483	0	0	0
303	1	1	44.92595127996303	-32.45346789590592	50.56977866653192	0	0	0
304	1	1	45.65056339738179	-33.1426248296227	50.56977866653192	0	0	0
305	1	1	46.375175514800546	-33.487203296481084	49.972951254739	0	0	0
306	1	1	47.099787632219304	-34.17636023019786	49.972951254739	0	0	0
307	1	1	47.82439974963806	-34.520938697056245	49.376123842946086	0	0	0
308	1	1	48.54901186705682	-35.21009563077302	49.376123842946086	0	0	0
309	1	1	49.27362398447558	-35.554674097631406	48.77929643115317	0	0	0
310	1	1	49.998236101894335	-36.24383103134818	48.77929643115317	0	0	0
311	1	1	50.72284821931309	-36.588409498206566	48.182469019360255	0	0	0
312	1	1	51.44746033673185	-37.27756643192334	48.182469019360255	0	0	0
313	1	1	52.17207245415061	-37.62214489878173	47.58564160756734	0	0	0
314	1	1	52.89668457156937	-38.3113018324985	47.58564160756734	0	0	0
315	1	1	53.621296688988124	-38.65588029935689	46.988814195774424	0	0	0
316	1	1	54.34590880640688	-39.34503723307366	46.988814195774424	0	0	0
317	1	1	55.07052092382564	-39.68961569993205	46.39198678398151	0	0	0
318	1	1	55.7951330412444	-40.37877263364882	46.39198678398151	0	0	0
319	1	1	56.519745158663156	-40.72335110050721	45.79515937218859	0	0	0
320	1	1	57.244357276081914	-41.41250803422398	45.79515937218859	0	0	0
321	1	1	57.96896939350067	-41.75708650108237	45.19833196039568	0	0	0
322	1	1	-0.7246121174187594	0.0968274117929116	69.76058536582909	0	0	0
323	1	1	-1.4492242348375188	0.4414058786512958	70.357412777622	0	0	0
324	1	1	-2.173836352256278	1.1305628123680669	70.357412777622	0	0	0
325	1	1	-2.8984484696750377	1.475141279226451	70.95424018941492	0	0	0
326	1	1	-3.6230605870937973	2.164298212943222	70.95424018941492	0	0	0
327	1	1	-4.347672704512557	2.5088766798016064	71.55106760120783	0	0	0
328	1	1	-5.072284821931317	3.1980336135183776	71.55106760120783	0	0	0
329	1	1	-5.796896939350076	3.542612080376762	72.14789501300075	0	0	0
330	1	1	-6.521509056768836	4.231769014093533	72.14789501300075	0	0	0
331	1	1	-7.2461211741875955	4.576347480951918	72.74472242479366	0	0	0
332	1	1	-7.970733291606355	5.265504414668689	72.74472242479366	0	0	0
333	1	1	-8.695345409025114	5.610082881527073	73.34154983658658	0	0	0
334	1	1	-9.419957526443874	6.299239815243844	73.34154983658658	0	0	0
335	1	1	-10.144569643862633	6.643818282102228	73.9383772483795	0	0	0
336	1	1	-10.869181761281393	7.332975215818999	73.9383772483795	0	0	0
337	1	1	-11.593793878700152	7.677553682677384	74.53520466017241	0	0	0
338	1	1	-12.318405996118912	8.366710616394155	74.53520466017241	0	0	0
339	1	1	-13.043018113537672	8.711289083252538	75.13203207196533	0	0	0
340	1	1	-13.767630230956431	9.400446016969308	75.13203207196533	0	0	0
341	1	1	-14.492242348375191	9.745024483827692	75.72885948375824	0	0	0
342	1	1	-15.21685446579395	10.434181417544462	75.72885948375824	0	0	0
343	1	1	-15.94146658321271	10.778759884402845	76.32568689555116	0	0	0
344	1	1	-16.66607870063147	11.467916818119615	76.32568689555116	0	0	0
345	1	1	-17.390690818050228	11.812495284977999	76.92251430734407	0	0	0
346	1	1	-18.115302935468986	12.501652218694769	76.92251430734407	0	0	0
347	1	1	-18.839915052887743	12.846230685553152	77.51934171913699	0	0	0
348	1	1	-19.5645271703065	13.535387619269923	77.51934171913699	0	0	0
349	1	1	-20.28913928772526	13.879966086128306	78.1161691309299	0	0	0
350	1	1	-21.013751405144017	14.569123019845076	78.1161691309299	0	0	0
351	1	1	-21.738363522562775	14.91370148670346	78.71299654272282	0	0	0
352	1	1	-22.462975639981533	15.60285842042023	78.71299654272282	0	0	0
353	1	1	-23.18758775740029	15.947436887278613	79.30982395451574	0	0	0
354	1	1	-23.91219987481905	16.636593820995383	79.30982395451574	0	0	0
355	1	1	-24.636811992237806	16.981172287853767	79.90665136630865	0	0	0
356	1	1	-25.361424109656564	17.670329221570537	79.90665136630865	0	0	0
357	1	1	-26.086036227075322	18.01490768842892	80.50347877810157	0	0	0
358	1	1	-26.81064834449408	18.70406462214569	80.50347877810157	0	0	0
359	1	1	-27.535260461912838	19.048643089004074	81.10030618989448	0	0	0
360	1	1	-28.259872579331596	19.737800022720844	81.10030618989448	0	0	0
361	1	1	-28.984484696750354	20.082378489579227	81.6971336016874	0	0	0
362	1	1	-29.70909681416911	20.771535423295997	81.6971336016874	0	0	0
363	1	1	-30.43370893158787	21.11611389015438	82.29396101348031	0	0	0
364	1	1	-31.158321049006627	21.80527082387115	82.29396101348031	0	0	0
365	1	1	-31.882933166425385	22.149849290729534	82.89078842527323	0	0	0
366	1	1	-32.607545283844146	22.839006224446305	82.89078842527323	0	0	0
367	1	1	-33.332157401262904	23.183584691304688	83.48761583706614	0	0	0
368	1	1	-34.05676951868166	23.872741625021458	83.48761583706614	0	0	0
369	1	1	-34.78138163610042	24.21732009187984	84.08444324885906	0	0	0
370	1	1	-35.50599375351918	24.90647702559661	84.08444324885906	0	0	0
371	1	1	-36.230605870937936	25.251055492454995	84.68127066065198	0	0	0
372	1	1	-36.955217988356694	25.940212426171765	84.68127066065198	0	0	0
373	1	1	-37.67983010577545	26.28479089303015	85.27809807244489	0	0	0
374	1	1	-38.40444222319421	26.97394782674692	85.27809807244489	0	0	0
375	1	1	-39.12905434061297	27.318526293605302	85.8749254842378	0	0	0
376	1	1	-39.853666458031725	28.007683227322072	85.8749254842378	0	0	0
377	1	1	-40.57827857545048	28.352261694180456	86.47175289603072	0	0	0
378	1	1	-41.30289069286924	29.041418627897226	86.47175289603072	0	0	0
379	1	1	-42.027502810288	29.38599709475561	87.06858030782364	0	0	0
380	1	1	-42.75211492770676	30.07515402847238	87.06858030782364	0	0	0
381	1	1	-43.476727045125514	30.419732495330763	87.66540771961655	0	0	0
382	1	1	-44.20133916254427	31.108889429047533	87.66540771961655	0	0	0
383	1	1	-44.92595127996303	31.453467895905916	88.26223513140947	0	0	0
384	1	1	-45.65056339738179	32.14262482962269	88.26223513140947	0	0	0
385	1	1	-46.375175514800546	32.48720329648108	88.85906254320238	0	0	0
386	1	1	-47.099787632219304	33.17636023019785	88.85906254320238	0	0	0
387	1	1	-47.82439974963806	33.52093869705624	89.4558899549953	0	0	0
388	1	1	-48.54901186705682	34.21009563077301	89.4558899549953	0	0	0
389	1	1	-49.27362398447558	34.5546740976314	90.05271736678822	0	0	0
390	1	1	-49.998236101894335	35.24383103134817	90.05271736678822	0	0	0
391	1	1	-50.72284821931309	35.58840949820656	90.64954477858113	0	0	0
392	1	1	-51.44746033673185	36.27756643192333	90.64954477858113	0	0	0
393	1	1	-52.17207245415061	36.62214489878172	91.24637219037405	0	0	0
394	1	1	-52.89668457156937	37.31130183249849	91.24637219037405	0	0	0
395	1	1	-53.621296688988124	37.65588029935688	91.84319960216696	0	0	0
396	1	1	-54.34590880640688	38.345037233073654	91.84319960216696	0	0	0
397	1	1	-55.07052092382564	38.68961569993204	92.44002701395988	0	0	0
398	1	1	-55.7951330412444	39.378772633648815	92.44002701395988	0	0	0
399	1	1	-56.519745158663156	39.7233511005072	93.0368544257528	0	0	0
400	1	1	-57.244357276081914	40.412508034223976	93.0368544257528	0	0	0
401	1	1	-57.96896939350067	40.75708650108236	93.63368183754571	0	0	0

Bonds

1	1	1	2
2	1	2	3
3	1	3	4
4	1	4	5
5	1	5	6
6	1	6	7
7	1	7	8
8	1	8	9
9	1	9	10
10	1	10	11
11	1	11	12
12	1	12	13
13	1	13	14
14	1	14	15
15	1	15	16
16	1	16	17
17	1	17	18
18	1	18	19
19	1	19	20
20	1	20	21
21	1	21	22
22	1	22	23
23	1	23	24
24	1	24	25
25	1	25	26
26	1	26	27
27	1	27	28
28	1	28	29
29	1	29	30
30	1	30	31
31	1	31	32
32	1	32	33
33	1	33	34
34	1	34	35
35	1	35	36
36	1	36	37
37	1	37	38
38	1	38	39
39	1	39	40
40	1	40	41
41	1	41	42
42	1	42	43
43	1	43	44
44	1	44	45
45	1	45	46
46	1	46	47
47	1	47	48
48	1	48	49
49	1	49	50
50	1	50	51
51	1	51	52
52	1	52	53
53	1	53	54
54	1	54	55
55	1	55	56
56	1	56	57
57	1	57	58
58	1	58	59
59	1	59	60
60	1	60	61
61	1	61	62
62	1	62	63
63	1	63	64
64	1	64	65
65	1	65	66
66	1	66	67
67	1	67	68
68	1	68	69
69	1	69	70
70	1	70	71
71	1	71	72
72	1	72	73
73	1	73	74
74	1	74	75
75	1	75	76
76	1	76	77
77	1	77	78
78	1	78	79
79	1	79	80
80	1	80	81
81	1	81	82
82	1	81	162
83	1	81	242
84	1	81	322
85	1	82	83
86	1	83	84
87	1	84	85
88	1	85	86
89	1	86	87
90	1	87	88
91	1	88	89
92	1	89	90
93	1	90	91
94	1	91	92
95	1	92	93
96	1	93	94
97	1	94	95
98	1	95	96
99	1	96	97
100	1	97	98
101	1	98	99
102	1	99	100
103	1	100	101
104	1	101	102
105	1	102	103
106	1	103	104
107	1	104	105
108	1	105	106
109	1	106	107
110	1	107	108
111	1	108	109
112	1	109	110
113	1	110	111
114	1	111	112
115	1	112	113
116	1	113	114
117	1	114	115
118	1	115	116
119	1	116	117
120	1	117	118
121	1	118	119
122	1	119	120
123	1	120	121
124	1	121	122
125	1	122	123
126	1	123	124
127	1	124	125
128	1	125	126
129	1	126	127
130	1	127	128
131	1	128	129
132	1	129	130
133	1	130	131
134	1	131	132
135	1	132	133
136	1	133	134
137	1	134	135
138	1	135	136
139	1	136	137
140	1	137	138
141	1	138	139
142	1	139	140
143	1	140	141
144	1	141	142
145	1	142	143
146	1	143	144
147	1	144	145
148	1	145	146
149	1	146	147
150	1	147	148
151	1	148	149
152	1	149	150
153	1	150	151
154	1	151	152
155	1	152	153
156	1	153	154
157	1	154	155
158	1	155	156
159	1	156	157
160	1	157	158
161	1	158	159
162	1	159	160
163	1	160	161
164	1	162	163
165	1	163	164
166	1	164	165
167	1	165	166
168	1	166	167
169	1	167	168
170	1	168	169
171	1	169	170
172	1	170	171
173	1	171	172
174	1	172	173
175	1	173	174
176	1	174	175
177	1	175	176
178	1	176	177
179	1	177	178
180	1	178	179
181	1	179	180
182	1	180	181
183	1	181	182
184	1	182	183
185	1	183	184
186	1	184	185
187	1	185	186
188	1	186	187
189	1	187	188
190	1	188	189
191	1	189	190
192	1	190	191
193	1	191	192
194	1	192	193
195	1	193	194
196	1	194	195
197	1	195	196
198	1	196	197
199	1	197	198
200	1	198	199
201	1	199	200
202	1	200	201
203	1	201	202
204	1	202	203
205	1	203	204
206	1	204	205
207	1	205	206
208	1	206	207
209	1	207	208
210	1	208	209
211	1	209	210
212	1	210	211
213	1	211	212
214	1	212	213
215	1	213	214
216	1	214	215
217	1	215	216
218	1	216	217
219	1	217	218
220	1	218	219
221	1	219	220
222	1	220	221
223	1	221	222
224	1	222	223
225	1	223	224
226	1	224	225
227	1	225	226
228	1	226	227
229	1	227	228
230	1	228	229
231	1	229	230
232	1	230	231
233	1	231	232
234	1	232	233
235	1	233	234
236	1	234	235
237	1	235	236
238	1	236	237
239	1	237	238
240	1	238	239
241	1	239	240
242	1	240	241
243	1	242	243
244	1	243	244
245	1	244	245
246	1	245	246
247	1	246	247
248	1	247	248
249	1	248	249
250	1	249	250
251	1	250	251
252	1	251	252
253	1	252	253
254	1	253	254
255	1	254	255
256	1	255	256
257	1	256	257
258	1	257	258
259	1	258	259
260	1	259	260
261	1	260	261
262	1	261	262
263	1	262	263
264	1	263	264
265	1	264	265
266	1	265	266
267	1	266	267
268	1	267	268
269	1	268	269
270	1	269	270
271	1	270	271
272	1	271	272
273	1	272	273
274	1	273	274
275	1	274	275
276	1	275	276
277	1	276	277
278	1	277	278
279	1	278	279
280	1	279	280
281	1	280	281
282	1	281	282
283	1	282	283