bb200nuc1bl100bn5d30tot500V2

501 atoms
500 bonds
505 angles

1 atom types
1 bond types
1 angle types

-1000 1000 xlo xhi
-1000 1000 ylo yhi
-1000 1000 zlo zhi

Masses

1 1

Atoms

1	1	1	0.0	0.0	0.0	0	0	0
2	1	1	0.0	0.0	1.0	0	0	0
3	1	1	0.0	-0.49999999999999994	1.8660254037844388	0	0	0
4	1	1	0.0	0.0	2.7320508075688776	0	0	0
5	1	1	0.0	-0.49999999999999994	3.5980762113533165	0	0	0
6	1	1	0.0	0.0	4.464101615137755	0	0	0
7	1	1	0.0	-0.49999999999999994	5.330127018922194	0	0	0
8	1	1	0.0	0.0	6.196152422706632	0	0	0
9	1	1	0.0	-0.49999999999999994	7.06217782649107	0	0	0
10	1	1	0.0	0.0	7.928203230275509	0	0	0
11	1	1	0.0	-0.49999999999999994	8.794228634059948	0	0	0
12	1	1	0.0	0.0	9.660254037844387	0	0	0
13	1	1	0.0	-0.49999999999999994	10.526279441628827	0	0	0
14	1	1	0.0	0.0	11.392304845413266	0	0	0
15	1	1	0.0	-0.49999999999999994	12.258330249197705	0	0	0
16	1	1	0.0	0.0	13.124355652982144	0	0	0
17	1	1	0.0	-0.49999999999999994	13.990381056766584	0	0	0
18	1	1	0.0	0.0	14.856406460551023	0	0	0
19	1	1	0.0	-0.49999999999999994	15.722431864335462	0	0	0
20	1	1	0.0	0.0	16.5884572681199	0	0	0
21	1	1	0.0	-0.49999999999999994	17.454482671904337	0	0	0
22	1	1	0.0	0.0	18.320508075688775	0	0	0
23	1	1	0.0	-0.49999999999999994	19.186533479473212	0	0	0
24	1	1	0.0	0.0	20.05255888325765	0	0	0
25	1	1	0.0	-0.49999999999999994	20.918584287042087	0	0	0
26	1	1	0.0	0.0	21.784609690826525	0	0	0
27	1	1	0.0	-0.49999999999999994	22.650635094610962	0	0	0
28	1	1	0.0	0.0	23.5166604983954	0	0	0
29	1	1	0.0	-0.49999999999999994	24.382685902179837	0	0	0
30	1	1	0.0	0.0	25.248711305964274	0	0	0
31	1	1	0.0	-0.49999999999999994	26.114736709748712	0	0	0
32	1	1	0.0	0.0	26.98076211353315	0	0	0
33	1	1	0.0	-0.49999999999999994	27.846787517317587	0	0	0
34	1	1	0.0	0.0	28.712812921102024	0	0	0
35	1	1	0.0	-0.49999999999999994	29.578838324886462	0	0	0
36	1	1	0.0	0.0	30.4448637286709	0	0	0
37	1	1	0.0	-0.49999999999999994	31.310889132455337	0	0	0
38	1	1	0.0	0.0	32.17691453623978	0	0	0
39	1	1	0.0	-0.49999999999999994	33.04293994002422	0	0	0
40	1	1	0.0	0.0	33.90896534380866	0	0	0
41	1	1	0.0	-0.49999999999999994	34.7749907475931	0	0	0
42	1	1	0.0	0.0	35.64101615137754	0	0	0
43	1	1	0.0	-0.49999999999999994	36.50704155516198	0	0	0
44	1	1	0.0	0.0	37.373066958946424	0	0	0
45	1	1	0.0	-0.49999999999999994	38.239092362730865	0	0	0
46	1	1	0.0	0.0	39.105117766515306	0	0	0
47	1	1	0.0	-0.49999999999999994	39.97114317029975	0	0	0
48	1	1	0.0	0.0	40.83716857408419	0	0	0
49	1	1	0.0	-0.49999999999999994	41.70319397786863	0	0	0
50	1	1	0.0	0.0	42.56921938165307	0	0	0
51	1	1	0.0	-0.49999999999999994	43.43524478543751	0	0	0
52	1	1	0.0	0.0	44.30127018922195	0	0	0
53	1	1	0.0	-0.49999999999999994	45.16729559300639	0	0	0
54	1	1	0.0	0.0	46.033320996790835	0	0	0
55	1	1	0.0	-0.49999999999999994	46.899346400575276	0	0	0
56	1	1	0.0	0.0	47.76537180435972	0	0	0
57	1	1	0.0	-0.49999999999999994	48.63139720814416	0	0	0
58	1	1	0.0	0.0	49.4974226119286	0	0	0
59	1	1	0.0	-0.49999999999999994	50.36344801571304	0	0	0
60	1	1	0.0	0.0	51.22947341949748	0	0	0
61	1	1	0.0	-0.49999999999999994	52.09549882328192	0	0	0
62	1	1	0.0	0.0	52.96152422706636	0	0	0
63	1	1	0.0	-0.49999999999999994	53.827549630850804	0	0	0
64	1	1	0.0	0.0	54.693575034635245	0	0	0
65	1	1	0.0	-0.49999999999999994	55.559600438419686	0	0	0
66	1	1	0.0	0.0	56.42562584220413	0	0	0
67	1	1	0.0	-0.49999999999999994	57.29165124598857	0	0	0
68	1	1	0.0	0.0	58.15767664977301	0	0	0
69	1	1	0.0	-0.49999999999999994	59.02370205355745	0	0	0
70	1	1	0.0	0.0	59.88972745734189	0	0	0
71	1	1	0.0	-0.49999999999999994	60.75575286112633	0	0	0
72	1	1	0.0	0.0	61.62177826491077	0	0	0
73	1	1	0.0	-0.49999999999999994	62.487803668695214	0	0	0
74	1	1	0.0	0.0	63.353829072479655	0	0	0
75	1	1	0.0	-0.49999999999999994	64.21985447626409	0	0	0
76	1	1	0.0	0.0	65.08587988004852	0	0	0
77	1	1	0.0	-0.49999999999999994	65.95190528383296	0	0	0
78	1	1	0.0	0.0	66.81793068761739	0	0	0
79	1	1	0.0	-0.49999999999999994	67.68395609140183	0	0	0
80	1	1	0.0	0.0	68.54998149518626	0	0	0
81	1	1	0.0	-0.49999999999999994	69.41600689897069	0	0	0
82	1	1	0.0	0.0	70.28203230275513	0	0	0
83	1	1	0.0	-0.49999999999999994	71.14805770653956	0	0	0
84	1	1	0.0	0.0	72.014083110324	0	0	0
85	1	1	0.0	-0.49999999999999994	72.88010851410843	0	0	0
86	1	1	0.0	0.0	73.74613391789286	0	0	0
87	1	1	0.0	-0.49999999999999994	74.6121593216773	0	0	0
88	1	1	0.0	0.0	75.47818472546173	0	0	0
89	1	1	0.0	-0.49999999999999994	76.34421012924616	0	0	0
90	1	1	0.0	0.0	77.2102355330306	0	0	0
91	1	1	0.0	-0.49999999999999994	78.07626093681503	0	0	0
92	1	1	0.0	0.0	78.94228634059947	0	0	0
93	1	1	0.0	-0.49999999999999994	79.8083117443839	0	0	0
94	1	1	0.0	0.0	80.67433714816833	0	0	0
95	1	1	0.0	-0.49999999999999994	81.54036255195277	0	0	0
96	1	1	0.0	0.0	82.4063879557372	0	0	0
97	1	1	0.0	-0.49999999999999994	83.27241335952164	0	0	0
98	1	1	0.0	0.0	84.13843876330607	0	0	0
99	1	1	0.0	-0.49999999999999994	85.0044641670905	0	0	0
100	1	1	0.0	0.0	85.87048957087494	0	0	0
101	1	1	0.0	-0.49999999999999994	86.73651497465937	0	0	0
102	1	1	-0.11147359509397461	-1.4937608676164755	86.7401171394205	0	0	0
103	1	1	-0.22294719018794967	-2.3561841066397777	86.24635627180402	0	0	0
104	1	1	-0.33442078528192476	-3.2150051809019473	86.74635627180402	0	0	0
105	1	1	-0.4458943803758998	-4.0774284199252495	86.25259540418753	0	0	0
106	1	1	-0.5573679754698748	-4.936249494187419	86.75259540418753	0	0	0
107	1	1	-0.6688415705638499	-5.798672733210721	86.25883453657104	0	0	0
108	1	1	-0.7803151656578249	-6.657493807472891	86.75883453657104	0	0	0
109	1	1	-0.8917887607517999	-7.519917046496193	86.26507366895456	0	0	0
110	1	1	-1.003262355845775	-8.378738120758362	86.76507366895456	0	0	0
111	1	1	-1.11473595093975	-9.241161359781664	86.27131280133807	0	0	0
112	1	1	-1.2262095460337252	-10.099982434043833	86.77131280133807	0	0	0
113	1	1	-1.3376831411277004	-10.962405673067135	86.27755193372158	0	0	0
114	1	1	-1.4491567362216755	-11.821226747329304	86.77755193372158	0	0	0
115	1	1	-1.5606303313156507	-12.683649986352606	86.2837910661051	0	0	0
116	1	1	-1.6721039264096258	-13.542471060614774	86.7837910661051	0	0	0
117	1	1	-1.783577521503601	-14.404894299638077	86.29003019848861	0	0	0
118	1	1	-1.895051116597576	-15.263715373900245	86.79003019848861	0	0	0
119	1	1	-2.006524711691551	-16.126138612923548	86.29626933087212	0	0	0
120	1	1	-2.1179983067855264	-16.984959687185718	86.79626933087212	0	0	0
121	1	1	-2.2294719018795015	-17.847382926209022	86.30250846325563	0	0	0
122	1	1	-2.3409454969734766	-18.706204000471192	86.80250846325563	0	0	0
123	1	1	-2.452419092067452	-19.568627239494496	86.30874759563915	0	0	0
124	1	1	-2.563892687161427	-20.427448313756667	86.80874759563915	0	0	0
125	1	1	-2.675366282255402	-21.28987155277997	86.31498672802266	0	0	0
126	1	1	-2.786839877349377	-22.14869262704214	86.81498672802266	0	0	0
127	1	1	-2.8983134724433524	-23.011115866065445	86.32122586040617	0	0	0
128	1	1	-3.0097870675373275	-23.869936940327616	86.82122586040617	0	0	0
129	1	1	-3.1212606626313026	-24.73236017935092	86.32746499278969	0	0	0
130	1	1	-3.232734257725278	-25.59118125361309	86.82746499278969	0	0	0
131	1	1	-3.344207852819253	-26.453604492636394	86.3337041251732	0	0	0
132	1	1	-3.455681447913228	-27.312425566898565	86.8337041251732	0	0	0
133	1	1	-3.567155043007203	-28.17484880592187	86.33994325755671	0	0	0
134	1	1	-3.6786286381011783	-29.03366988018404	86.83994325755671	0	0	0
135	1	1	-3.7901022331951535	-29.896093119207343	86.34618238994022	0	0	0
136	1	1	-3.9015758282891286	-30.754914193469514	86.84618238994022	0	0	0
137	1	1	-4.013049423383103	-31.617337432492818	86.35242152232374	0	0	0
138	1	1	-4.1245230184770785	-32.476158506754985	86.85242152232374	0	0	0
139	1	1	-4.235996613571054	-33.338581745778285	86.35866065470725	0	0	0
140	1	1	-4.347470208665029	-34.19740282004045	86.85866065470725	0	0	0
141	1	1	-4.458943803759004	-35.05982605906375	86.36489978709076	0	0	0
142	1	1	-4.570417398852979	-35.91864713332592	86.86489978709076	0	0	0
143	1	1	-4.681890993946954	-36.78107037234922	86.37113891947428	0	0	0
144	1	1	-4.793364589040929	-37.63989144661139	86.87113891947428	0	0	0
145	1	1	-4.9048381841349045	-38.50231468563469	86.37737805185779	0	0	0
146	1	1	-5.01631177922888	-39.361135759896854	86.87737805185779	0	0	0
147	1	1	-5.127785374322855	-40.223558998920154	86.3836171842413	0	0	0
148	1	1	-5.23925896941683	-41.08238007318232	86.8836171842413	0	0	0
149	1	1	-5.350732564510805	-41.94480331220562	86.38985631662482	0	0	0
150	1	1	-5.46220615960478	-42.80362438646779	86.88985631662482	0	0	0
151	1	1	-5.573679754698755	-43.66604762549109	86.39609544900833	0	0	0
152	1	1	-5.6851533497927305	-44.524868699753256	86.89609544900833	0	0	0
153	1	1	-5.796626944886706	-45.387291938776556	86.40233458139184	0	0	0
154	1	1	-5.908100539980681	-46.24611301303872	86.90233458139184	0	0	0
155	1	1	-6.019574135074656	-47.108536252062024	86.40857371377535	0	0	0
156	1	1	-6.131047730168631	-47.96735732632419	86.90857371377535	0	0	0
157	1	1	-6.242521325262606	-48.82978056534749	86.41481284615887	0	0	0
158	1	1	-6.353994920356581	-49.68860163960966	86.91481284615887	0	0	0
159	1	1	-6.4654685154505565	-50.55102487863296	86.42105197854238	0	0	0
160	1	1	-6.576942110544532	-51.409845952895125	86.92105197854238	0	0	0
161	1	1	-6.688415705638507	-52.272269191918426	86.42729111092589	0	0	0
162	1	1	-6.799889300732482	-53.13109026618059	86.92729111092589	0	0	0
163	1	1	-6.911362895826457	-53.99351350520389	86.4335302433094	0	0	0
164	1	1	-7.022836490920432	-54.85233457946606	86.9335302433094	0	0	0
165	1	1	-7.134310086014407	-55.71475781848936	86.43976937569292	0	0	0
166	1	1	-7.2457836811083824	-56.57357889275153	86.93976937569292	0	0	0
167	1	1	-7.357257276202358	-57.43600213177483	86.44600850807643	0	0	0
168	1	1	-7.468730871296333	-58.294823206036995	86.94600850807643	0	0	0
169	1	1	-7.580204466390308	-59.157246445060295	86.45224764045994	0	0	0
170	1	1	-7.691678061484283	-60.01606751932246	86.95224764045994	0	0	0
171	1	1	-7.803151656578258	-60.87849075834576	86.45848677284346	0	0	0
172	1	1	-7.914625251672233	-61.73731183260793	86.95848677284346	0	0	0
173	1	1	-8.026098846766208	-62.59973507163123	86.46472590522697	0	0	0
174	1	1	-8.137572441860183	-63.4585561458934	86.96472590522697	0	0	0
175	1	1	-8.249046036954157	-64.3209793849167	86.47096503761048	0	0	0
176	1	1	-8.360519632048131	-65.17980045917886	86.97096503761048	0	0	0
177	1	1	-8.471993227142105	-66.04222369820216	86.477204169994	0	0	0
178	1	1	-8.58346682223608	-66.90104477246433	86.977204169994	0	0	0
179	1	1	-8.694940417330054	-67.76346801148763	86.48344330237751	0	0	0
180	1	1	-8.806414012424028	-68.6222890857498	86.98344330237751	0	0	0
181	1	1	-8.917887607518002	-69.4847123247731	86.48968243476102	0	0	0
182	1	1	-9.029361202611977	-70.34353339903527	86.98968243476102	0	0	0
183	1	1	-9.140834797705951	-71.20595663805857	86.49592156714453	0	0	0
184	1	1	-9.252308392799925	-72.06477771232073	86.99592156714453	0	0	0
185	1	1	-9.3637819878939	-72.92720095134403	86.50216069952805	0	0	0
186	1	1	-9.475255582987874	-73.7860220256062	87.00216069952805	0	0	0
187	1	1	-9.586729178081848	-74.6484452646295	86.50839983191156	0	0	0
188	1	1	-9.698202773175822	-75.50726633889167	87.00839983191156	0	0	0
189	1	1	-9.809676368269796	-76.36968957791497	86.51463896429507	0	0	0
190	1	1	-9.92114996336377	-77.22851065217714	87.01463896429507	0	0	0
191	1	1	-10.032623558457745	-78.09093389120044	86.52087809667859	0	0	0
192	1	1	-10.14409715355172	-78.9497549654626	87.02087809667859	0	0	0
193	1	1	-10.255570748645694	-79.8121782044859	86.5271172290621	0	0	0
194	1	1	-10.367044343739668	-80.67099927874807	87.0271172290621	0	0	0
195	1	1	-10.478517938833642	-81.53342251777137	86.53335636144561	0	0	0
196	1	1	-10.589991533927616	-82.39224359203354	87.03335636144561	0	0	0
197	1	1	-10.70146512902159	-83.25466683105684	86.53959549382913	0	0	0
198	1	1	-10.812938724115565	-84.113487905319	87.03959549382913	0	0	0
199	1	1	-10.924412319209539	-84.9759111443423	86.54583462621264	0	0	0
200	1	1	-11.035885914303513	-85.83473221860447	87.04583462621264	0	0	0
201	1	1	-11.147359509397488	-86.69715545762777	86.55207375859615	0	0	0
202	1	1	0.1114735950939746	-0.006239132383524748	87.59893821368267	0	0	0
203	1	1	0.22294719018794962	-0.009841297144662718	88.59269908129914	0	0	0
204	1	1	0.33442078528192465	0.8489797771175039	89.09269908129914	0	0	0
205	1	1	0.4458943803758997	0.845377612356366	90.08645994891562	0	0	0
206	1	1	0.5573679754698747	1.7041986866185326	90.58645994891562	0	0	0
207	1	1	0.6688415705638497	1.7005965218573946	91.58022081653209	0	0	0
208	1	1	0.7803151656578248	2.5594175961195615	92.08022081653209	0	0	0
209	1	1	0.8917887607517998	2.5558154313584236	93.07398168414856	0	0	0
210	1	1	1.003262355845775	3.4146365056205905	93.57398168414856	0	0	0
211	1	1	1.11473595093975	3.4110343408594526	94.56774255176504	0	0	0
212	1	1	1.2262095460337252	4.2698554151216195	95.06774255176504	0	0	0
213	1	1	1.3376831411277004	4.2662532503604815	96.06150341938151	0	0	0
214	1	1	1.4491567362216755	5.1250743246226484	96.56150341938151	0	0	0
215	1	1	1.5606303313156507	5.1214721598615105	97.55526428699798	0	0	0
216	1	1	1.6721039264096258	5.980293234123677	98.05526428699798	0	0	0
217	1	1	1.783577521503601	5.9766910693625395	99.04902515461445	0	0	0
218	1	1	1.895051116597576	6.835512143624706	99.54902515461445	0	0	0
219	1	1	2.006524711691551	6.831909978863568	100.54278602223093	0	0	0
220	1	1	2.1179983067855264	7.690731053125735	101.04278602223093	0	0	0
221	1	1	2.2294719018795015	7.687128888364597	102.0365468898474	0	0	0
222	1	1	2.3409454969734766	8.545949962626764	102.5365468898474	0	0	0
223	1	1	2.452419092067452	8.542347797865625	103.53030775746387	0	0	0
224	1	1	2.563892687161427	9.401168872127792	104.03030775746387	0	0	0
225	1	1	2.675366282255402	9.397566707366654	105.02406862508035	0	0	0
226	1	1	2.786839877349377	10.25638778162882	105.52406862508035	0	0	0
227	1	1	2.8983134724433524	10.252785616867682	106.51782949269682	0	0	0
228	1	1	3.0097870675373275	11.111606691129849	107.01782949269682	0	0	0
229	1	1	3.1212606626313026	11.10800452636871	108.01159036031329	0	0	0
230	1	1	3.232734257725278	11.966825600630877	108.51159036031329	0	0	0
231	1	1	3.344207852819253	11.963223435869738	109.50535122792976	0	0	0
232	1	1	3.455681447913228	12.822044510131905	110.00535122792976	0	0	0
233	1	1	3.567155043007203	12.818442345370766	110.99911209554624	0	0	0
234	1	1	3.6786286381011783	13.677263419632933	111.49911209554624	0	0	0
235	1	1	3.7901022331951535	13.673661254871794	112.49287296316271	0	0	0
236	1	1	3.9015758282891286	14.53248232913396	112.99287296316271	0	0	0
237	1	1	4.013049423383103	14.528880164372822	113.98663383077918	0	0	0
238	1	1	4.1245230184770785	15.387701238634989	114.48663383077918	0	0	0
239	1	1	4.235996613571054	15.38409907387385	115.48039469839566	0	0	0
240	1	1	4.347470208665029	16.242920148136015	115.98039469839566	0	0	0
241	1	1	4.458943803759004	16.239317983374878	116.97415556601213	0	0	0
242	1	1	4.570417398852979	17.098139057637045	117.47415556601213	0	0	0
243	1	1	4.681890993946954	17.094536892875908	118.4679164336286	0	0	0
244	1	1	4.793364589040929	17.953357967138075	118.9679164336286	0	0	0
245	1	1	4.9048381841349045	17.949755802376938	119.96167730124508	0	0	0
246	1	1	5.01631177922888	18.808576876639105	120.46167730124508	0	0	0
247	1	1	5.127785374322855	18.804974711877968	121.45543816886155	0	0	0
248	1	1	5.23925896941683	19.663795786140135	121.95543816886155	0	0	0
249	1	1	5.350732564510805	19.660193621378998	122.94919903647802	0	0	0
250	1	1	5.46220615960478	20.519014695641165	123.44919903647802	0	0	0
251	1	1	5.573679754698755	20.515412530880027	124.4429599040945	0	0	0
252	1	1	5.6851533497927305	21.374233605142194	124.9429599040945	0	0	0
253	1	1	5.796626944886706	21.370631440381057	125.93672077171097	0	0	0
254	1	1	5.908100539980681	22.229452514643224	126.43672077171097	0	0	0
255	1	1	6.019574135074656	22.225850349882087	127.43048163932744	0	0	0
256	1	1	6.131047730168631	23.084671424144254	127.93048163932744	0	0	0
257	1	1	6.242521325262606	23.081069259383117	128.92424250694393	0	0	0
258	1	1	6.353994920356581	23.939890333645284	129.42424250694393	0	0	0
259	1	1	6.4654685154505565	23.936288168884147	130.4180033745604	0	0	0
260	1	1	6.576942110544532	24.795109243146314	130.9180033745604	0	0	0
261	1	1	6.688415705638507	24.791507078385177	131.9117642421769	0	0	0
262	1	1	6.799889300732482	25.650328152647344	132.4117642421769	0	0	0
263	1	1	6.911362895826457	25.646725987886207	133.4055251097934	0	0	0
264	1	1	7.022836490920432	26.505547062148374	133.9055251097934	0	0	0
265	1	1	7.134310086014407	26.501944897387236	134.89928597740987	0	0	0
266	1	1	7.2457836811083824	27.360765971649403	135.39928597740987	0	0	0
267	1	1	7.357257276202358	27.357163806888266	136.39304684502636	0	0	0
268	1	1	7.468730871296333	28.215984881150433	136.89304684502636	0	0	0
269	1	1	7.580204466390308	28.212382716389296	137.88680771264285	0	0	0
270	1	1	7.691678061484283	29.071203790651463	138.38680771264285	0	0	0
271	1	1	7.803151656578258	29.067601625890326	139.38056858025934	0	0	0
272	1	1	7.914625251672233	29.926422700152493	139.88056858025934	0	0	0
273	1	1	8.026098846766208	29.922820535391356	140.87432944787582	0	0	0
274	1	1	8.137572441860183	30.781641609653523	141.37432944787582	0	0	0
275	1	1	8.249046036954157	30.778039444892386	142.3680903154923	0	0	0
276	1	1	8.360519632048131	31.636860519154553	142.8680903154923	0	0	0
277	1	1	8.471993227142105	31.633258354393416	143.8618511831088	0	0	0
278	1	1	8.58346682223608	32.49207942865558	144.3618511831088	0	0	0
279	1	1	8.694940417330054	32.48847726389444	145.35561205072528	0	0	0
280	1	1	8.806414012424028	33.347298338156605	145.85561205072528	0	0	0
281	1	1	8.917887607518002	33.343696173395465	146.84937291834177	0	0	0
282	1	1	9.029361202611977	34.20251724765763	147.34937291834177	0	0	0
283	1	1	9.140834797705951	34.19891508289649	148.34313378595826	0	0	0
284	1	1	9.252308392799925	35.05773615715866	148.84313378595826	0	0	0
285	1	1	9.3637819878939	35.05413399239752	149.83689465357475	0	0	0
286	1	1	9.475255582987874	35.912955066659684	150.33689465357475	0	0	0
287	1	1	9.586729178081848	35.909352901898544	151.33065552119123	0	0	0
288	1	1	9.698202773175822	36.76817397616071	151.83065552119123	0	0	0
289	1	1	9.809676368269796	36.76457181139957	152.82441638880772	0	0	0
290	1	1	9.92114996336377	37.62339288566174	153.32441638880772	0	0	0
291	1	1	10.032623558457745	37.619790720900596	154.3181772564242	0	0	0
292	1	1	10.14409715355172	38.47861179516276	154.8181772564242	0	0	0
293	1	1	10.255570748645694	38.47500963040162	155.8119381240407	0	0	0
294	1	1	10.367044343739668	39.33383070466379	156.3119381240407	0	0	0
295	1	1	10.478517938833642	39.33022853990265	157.30569899165718	0	0	0
296	1	1	10.589991533927616	40.189049614164816	157.80569899165718	0	0	0
297	1	1	10.70146512902159	40.185447449403675	158.79945985927367	0	0	0
298	1	1	10.812938724115565	41.04426852366584	159.29945985927367	0	0	0
299	1	1	10.924412319209539	41.0406663589047	160.29322072689015	0	0	0
300	1	1	11.035885914303513	41.89948743316687	160.79322072689015	0	0	0
301	1	1	11.147359509397488	41.89588526840573	161.78698159450664	0	0	0
302	1	1	-0.9916811568219727	-0.388526404906025	86.80087428479442	0	0	0
303	1	1	-1.9833623136439456	-0.3241670947709834	86.91234787988839	0	0	0
304	1	1	-2.975043470465918	-0.19544847450089964	86.91234787988839	0	0	0
305	1	1	-3.966724627287891	-0.13108916436585802	87.02382147498236	0	0	0
306	1	1	-4.958405784109864	-0.0023705440957742796	87.02382147498236	0	0	0
307	1	1	-5.950086940931837	0.06198876603926734	87.13529507007632	0	0	0
308	1	1	-6.94176809775381	0.19070738630935108	87.13529507007632	0	0	0
309	1	1	-7.933449254575783	0.2550666964443927	87.2467686651703	0	0	0
310	1	1	-8.925130411397756	0.38378531671447647	87.2467686651703	0	0	0
311	1	1	-9.916811568219728	0.44814462684951806	87.35824226026426	0	0	0
312	1	1	-10.9084927250417	0.5768632471196018	87.35824226026426	0	0	0
313	1	1	-11.900173881863672	0.6412225572546434	87.46971585535823	0	0	0
314	1	1	-12.891855038685645	0.7699411775247271	87.46971585535823	0	0	0
315	1	1	-13.883536195507617	0.8343004876597687	87.5811894504522	0	0	0
316	1	1	-14.875217352329589	0.9630191079298525	87.5811894504522	0	0	0
317	1	1	-15.86689850915156	1.0273784180648942	87.69266304554617	0	0	0
318	1	1	-16.858579665973533	1.1560970383349778	87.69266304554617	0	0	0
319	1	1	-17.850260822795505	1.2204563484700195	87.80413664064014	0	0	0
320	1	1	-18.841941979617477	1.3491749687401033	87.80413664064014	0	0	0
321	1	1	-19.83362313643945	1.413534278875145	87.9156102357341	0	0	0
322	1	1	-20.82530429326142	1.542252899145229	87.9156102357341	0	0	0
323	1	1	-21.816985450083394	1.6066122092802706	88.02708383082808	0	0	0
324	1	1	-22.808666606905366	1.7353308295503544	88.02708383082808	0	0	0
325	1	1	-23.800347763727338	1.7996901396853962	88.13855742592204	0	0	0
326	1	1	-24.79202892054931	1.92840875995548	88.13855742592204	0	0	0
327	1	1	-25.783710077371282	1.9927680700905217	88.25003102101601	0	0	0
328	1	1	-26.775391234193254	2.1214866903606056	88.25003102101601	0	0	0
329	1	1	-27.767072391015226	2.1858460004956473	88.36150461610998	0	0	0
330	1	1	-28.7587535478372	2.314564620765731	88.36150461610998	0	0	0
331	1	1	-29.75043470465917	2.378923930900773	88.47297821120395	0	0	0
332	1	1	-30.742115861481143	2.5076425511708567	88.47297821120395	0	0	0
333	1	1	-31.733797018303115	2.5720018613058984	88.58445180629792	0	0	0
334	1	1	-32.72547817512509	2.700720481575982	88.58445180629792	0	0	0
335	1	1	-33.717159331947066	2.765079791711024	88.69592540139189	0	0	0
336	1	1	-34.70884048876904	2.8937984119811078	88.69592540139189	0	0	0
337	1	1	-35.70052164559102	2.9581577221161495	88.80739899648586	0	0	0
338	1	1	-36.69220280241299	3.0868763423862333	88.80739899648586	0	0	0
339	1	1	-37.68388395923497	3.151235652521275	88.91887259157983	0	0	0
340	1	1	-38.675565116056944	3.279954272791359	88.91887259157983	0	0	0
341	1	1	-39.66724627287892	3.3443135829264006	89.0303461866738	0	0	0
342	1	1	-40.658927429700896	3.4730322031964844	89.0303461866738	0	0	0
343	1	1	-41.65060858652287	3.537391513331526	89.14181978176777	0	0	0
344	1	1	-42.64228974334485	3.66611013360161	89.14181978176777	0	0	0
345	1	1	-43.63397090016682	3.7304694437366517	89.25329337686173	0	0	0
346	1	1	-44.6256520569888	3.8591880640067355	89.25329337686173	0	0	0
347	1	1	-45.617333213810774	3.9235473741417772	89.3647669719557	0	0	0
348	1	1	-46.60901437063275	4.052265994411861	89.3647669719557	0	0	0
349	1	1	-47.600695527454725	4.116625304546902	89.47624056704967	0	0	0
350	1	1	-48.5923766842767	4.245343924816986	89.47624056704967	0	0	0
351	1	1	-49.58405784109868	4.3097032349520275	89.58771416214364	0	0	0
352	1	1	-50.57573899792065	4.438421855222111	89.58771416214364	0	0	0
353	1	1	-51.56742015474263	4.502781165357153	89.69918775723761	0	0	0
354	1	1	-52.5591013115646	4.631499785627236	89.69918775723761	0	0	0
355	1	1	-53.55078246838658	4.695859095762278	89.81066135233158	0	0	0
356	1	1	-54.542463625208555	4.824577716032361	89.81066135233158	0	0	0
357	1	1	-55.53414478203053	4.888937026167403	89.92213494742555	0	0	0
358	1	1	-56.525825938852506	5.017655646437486	89.92213494742555	0	0	0
359	1	1	-57.51750709567448	5.082014956572528	90.03360854251952	0	0	0
360	1	1	-58.50918825249646	5.210733576842611	90.03360854251952	0	0	0
361	1	1	-59.50086940931843	5.275092886977653	90.14508213761349	0	0	0
362	1	1	-60.49255056614041	5.403811507247736	90.14508213761349	0	0	0
363	1	1	-61.484231722962384	5.468170817382778	90.25655573270745	0	0	0
364	1	1	-62.47591287978436	5.5968894376528615	90.25655573270745	0	0	0
365	1	1	-63.467594036606336	5.661248747787903	90.36802932780142	0	0	0
366	1	1	-64.45927519342831	5.789967368057987	90.36802932780142	0	0	0
367	1	1	-65.45095635025028	5.854326678193028	90.47950292289539	0	0	0
368	1	1	-66.44263750707225	5.983045298463112	90.47950292289539	0	0	0
369	1	1	-67.43431866389422	6.047404608598153	90.59097651798936	0	0	0
370	1	1	-68.42599982071619	6.176123228868237	90.59097651798936	0	0	0
371	1	1	-69.41768097753815	6.2404825390032785	90.70245011308333	0	0	0
372	1	1	-70.40936213436012	6.369201159273362	90.70245011308333	0	0	0
373	1	1	-71.40104329118209	6.433560469408404	90.8139237081773	0	0	0
374	1	1	-72.39272444800406	6.562279089678487	90.8139237081773	0	0	0
375	1	1	-73.38440560482603	6.626638399813529	90.92539730327127	0	0	0
376	1	1	-74.376086761648	6.755357020083612	90.92539730327127	0	0	0
377	1	1	-75.36776791846997	6.819716330218654	91.03687089836524	0	0	0
378	1	1	-76.35944907529193	6.948434950488737	91.03687089836524	0	0	0
379	1	1	-77.3511302321139	7.012794260623779	91.1483444934592	0	0	0
380	1	1	-78.34281138893587	7.141512880893862	91.1483444934592	0	0	0
381	1	1	-79.33449254575784	7.205872191028904	91.25981808855317	0	0	0
382	1	1	-80.32617370257981	7.3345908112989875	91.25981808855317	0	0	0
383	1	1	-81.31785485940178	7.398950121434029	91.37129168364714	0	0	0
384	1	1	-82.30953601622375	7.527668741704113	91.37129168364714	0	0	0
385	1	1	-83.30121717304571	7.592028051839154	91.48276527874111	0	0	0
386	1	1	-84.29289832986768	7.720746672109238	91.48276527874111	0	0	0
387	1	1	-85.28457948668965	7.785105982244279	91.59423887383508	0	0	0
388	1	1	-86.27626064351162	7.913824602514363	91.59423887383508	0	0	0
389	1	1	-87.26794180033359	7.9781839126494045	91.70571246892905	0	0	0
390	1	1	-88.25962295715556	8.106902532919488	91.70571246892905	0	0	0
391	1	1	-89.25130411397753	8.171261843054529	91.81718606402302	0	0	0
392	1	1	-90.2429852707995	8.299980463324612	91.81718606402302	0	0	0
393	1	1	-91.23466642762146	8.364339773459653	91.92865965911699	0	0	0
394	1	1	-92.22634758444343	8.493058393729736	91.92865965911699	0	0	0
395	1	1	-93.2180287412654	8.557417703864777	92.04013325421096	0	0	0
396	1	1	-94.20970989808737	8.68613632413486	92.04013325421096	0	0	0
397	1	1	-95.20139105490934	8.750495634269901	92.15160684930493	0	0	0
398	1	1	-96.1930722117313	8.879214254539985	92.15160684930493	0	0	0
399	1	1	-97.18475336855327	8.943573564675026	92.2630804443989	0	0	0
400	1	1	-98.17643452537524	9.072292184945109	92.2630804443989	0	0	0
401	1	1	-99.16811568219721	9.13665149508015	92.37455403949286	0	0	0
402	1	1	0.9916811568219727	-0.6114735950939749	86.67215566452433	0	0	0
403	1	1	1.9833623136439456	-0.6758329052290165	86.56068206943036	0	0	0
404	1	1	2.975043470465918	-0.8045515254991003	86.56068206943036	0	0	0
405	1	1	3.966724627287891	-0.8689108356341418	86.44920847433639	0	0	0
406	1	1	4.958405784109864	-0.9976294559042256	86.44920847433639	0	0	0
407	1	1	5.950086940931837	-1.0619887660392673	86.33773487924242	0	0	0
408	1	1	6.94176809775381	-1.190707386309351	86.33773487924242	0	0	0
409	1	1	7.933449254575783	-1.2550666964443926	86.22626128414845	0	0	0
410	1	1	8.925130411397756	-1.3837853167144765	86.22626128414845	0	0	0
411	1	1	9.916811568219728	-1.4481446268495182	86.11478768905448	0	0	0
412	1	1	10.9084927250417	-1.576863247119602	86.11478768905448	0	0	0
413	1	1	11.900173881863672	-1.6412225572546437	86.00331409396051	0	0	0
414	1	1	12.891855038685645	-1.7699411775247276	86.00331409396051	0	0	0
415	1	1	13.883536195507617	-1.8343004876597693	85.89184049886654	0	0	0
416	1	1	14.875217352329589	-1.9630191079298531	85.89184049886654	0	0	0
417	1	1	15.86689850915156	-2.027378418064895	85.78036690377257	0	0	0
418	1	1	16.858579665973533	-2.1560970383349787	85.78036690377257	0	0	0
419	1	1	17.850260822795505	-2.2204563484700204	85.6688933086786	0	0	0
420	1	1	18.841941979617477	-2.3491749687401042	85.6688933086786	0	0	0
421	1	1	19.83362313643945	-2.413534278875146	85.55741971358464	0	0	0
422	1	1	20.82530429326142	-2.54225289914523	85.55741971358464	0	0	0
423	1	1	21.816985450083394	-2.6066122092802715	85.44594611849067	0	0	0
424	1	1	22.808666606905366	-2.7353308295503553	85.44594611849067	0	0	0
425	1	1	23.800347763727338	-2.799690139685397	85.3344725233967	0	0	0
426	1	1	24.79202892054931	-2.928408759955481	85.3344725233967	0	0	0
427	1	1	25.783710077371282	-2.9927680700905226	85.22299892830273	0	0	0
428	1	1	26.775391234193254	-3.1214866903606064	85.22299892830273	0	0	0
429	1	1	27.767072391015226	-3.185846000495648	85.11152533320876	0	0	0
430	1	1	28.7587535478372	-3.314564620765732	85.11152533320876	0	0	0
431	1	1	29.75043470465917	-3.3789239309007737	85.00005173811479	0	0	0
432	1	1	30.742115861481143	-3.5076425511708575	85.00005173811479	0	0	0
433	1	1	31.733797018303115	-3.5720018613058993	84.88857814302082	0	0	0
434	1	1	32.72547817512509	-3.700720481575983	84.88857814302082	0	0	0
435	1	1	33.717159331947066	-3.765079791711025	84.77710454792685	0	0	0
436	1	1	34.70884048876904	-3.8937984119811087	84.77710454792685	0	0	0
437	1	1	35.70052164559102	-3.9581577221161504	84.66563095283288	0	0	0
438	1	1	36.69220280241299	-4.086876342386234	84.66563095283288	0	0	0
439	1	1	37.68388395923497	-4.151235652521276	84.55415735773892	0	0	0
440	1	1	38.675565116056944	-4.279954272791359	84.55415735773892	0	0	0
441	1	1	39.66724627287892	-4.344313582926401	84.44268376264495	0	0	0
442	1	1	40.658927429700896	-4.473032203196484	84.44268376264495	0	0	0
443	1	1	41.65060858652287	-4.537391513331526	84.33121016755098	0	0	0
444	1	1	42.64228974334485	-4.6661101336016095	84.33121016755098	0	0	0
445	1	1	43.63397090016682	-4.730469443736651	84.21973657245701	0	0	0
446	1	1	44.6256520569888	-4.859188064006735	84.21973657245701	0	0	0
447	1	1	45.617333213810774	-4.923547374141776	84.10826297736304	0	0	0
448	1	1	46.60901437063275	-5.05226599441186	84.10826297736304	0	0	0
449	1	1	47.600695527454725	-5.1166253045469015	83.99678938226907	0	0	0
450	1	1	48.5923766842767	-5.245343924816985	83.99678938226907	0	0	0
451	1	1	49.58405784109868	-5.309703234952027	83.8853157871751	0	0	0
452	1	1	50.57573899792065	-5.43842185522211	83.8853157871751	0	0	0
453	1	1	51.56742015474263	-5.502781165357152	83.77384219208113	0	0	0
454	1	1	52.5591013115646	-5.631499785627235	83.77384219208113	0	0	0
455	1	1	53.55078246838658	-5.695859095762277	83.66236859698716	0	0	0
456	1	1	54.542463625208555	-5.82457771603236	83.66236859698716	0	0	0
457	1	1	55.53414478203053	-5.888937026167402	83.5508950018932	0	0	0
458	1	1	56.525825938852506	-6.017655646437485	83.5508950018932	0	0	0
459	1	1	57.51750709567448	-6.082014956572527	83.43942140679923	0	0	0