bb360nuc1bl180bn5d30tot900V2

901 atoms
900 bonds
905 angles

1 atom types
1 bond types
1 angle types

-1000 1000 xlo xhi
-1000 1000 ylo yhi
-1000 1000 zlo zhi

Masses

1 1

Atoms

1	1	1	0.0	0.0	0.0	0	0	0
2	1	1	0.0	0.0	1.0	0	0	0
3	1	1	0.0	-0.49999999999999994	1.8660254037844388	0	0	0
4	1	1	0.0	0.0	2.7320508075688776	0	0	0
5	1	1	0.0	-0.49999999999999994	3.5980762113533165	0	0	0
6	1	1	0.0	0.0	4.464101615137755	0	0	0
7	1	1	0.0	-0.49999999999999994	5.330127018922194	0	0	0
8	1	1	0.0	0.0	6.196152422706632	0	0	0
9	1	1	0.0	-0.49999999999999994	7.06217782649107	0	0	0
10	1	1	0.0	0.0	7.928203230275509	0	0	0
11	1	1	0.0	-0.49999999999999994	8.794228634059948	0	0	0
12	1	1	0.0	0.0	9.660254037844387	0	0	0
13	1	1	0.0	-0.49999999999999994	10.526279441628827	0	0	0
14	1	1	0.0	0.0	11.392304845413266	0	0	0
15	1	1	0.0	-0.49999999999999994	12.258330249197705	0	0	0
16	1	1	0.0	0.0	13.124355652982144	0	0	0
17	1	1	0.0	-0.49999999999999994	13.990381056766584	0	0	0
18	1	1	0.0	0.0	14.856406460551023	0	0	0
19	1	1	0.0	-0.49999999999999994	15.722431864335462	0	0	0
20	1	1	0.0	0.0	16.5884572681199	0	0	0
21	1	1	0.0	-0.49999999999999994	17.454482671904337	0	0	0
22	1	1	0.0	0.0	18.320508075688775	0	0	0
23	1	1	0.0	-0.49999999999999994	19.186533479473212	0	0	0
24	1	1	0.0	0.0	20.05255888325765	0	0	0
25	1	1	0.0	-0.49999999999999994	20.918584287042087	0	0	0
26	1	1	0.0	0.0	21.784609690826525	0	0	0
27	1	1	0.0	-0.49999999999999994	22.650635094610962	0	0	0
28	1	1	0.0	0.0	23.5166604983954	0	0	0
29	1	1	0.0	-0.49999999999999994	24.382685902179837	0	0	0
30	1	1	0.0	0.0	25.248711305964274	0	0	0
31	1	1	0.0	-0.49999999999999994	26.114736709748712	0	0	0
32	1	1	0.0	0.0	26.98076211353315	0	0	0
33	1	1	0.0	-0.49999999999999994	27.846787517317587	0	0	0
34	1	1	0.0	0.0	28.712812921102024	0	0	0
35	1	1	0.0	-0.49999999999999994	29.578838324886462	0	0	0
36	1	1	0.0	0.0	30.4448637286709	0	0	0
37	1	1	0.0	-0.49999999999999994	31.310889132455337	0	0	0
38	1	1	0.0	0.0	32.17691453623978	0	0	0
39	1	1	0.0	-0.49999999999999994	33.04293994002422	0	0	0
40	1	1	0.0	0.0	33.90896534380866	0	0	0
41	1	1	0.0	-0.49999999999999994	34.7749907475931	0	0	0
42	1	1	0.0	0.0	35.64101615137754	0	0	0
43	1	1	0.0	-0.49999999999999994	36.50704155516198	0	0	0
44	1	1	0.0	0.0	37.373066958946424	0	0	0
45	1	1	0.0	-0.49999999999999994	38.239092362730865	0	0	0
46	1	1	0.0	0.0	39.105117766515306	0	0	0
47	1	1	0.0	-0.49999999999999994	39.97114317029975	0	0	0
48	1	1	0.0	0.0	40.83716857408419	0	0	0
49	1	1	0.0	-0.49999999999999994	41.70319397786863	0	0	0
50	1	1	0.0	0.0	42.56921938165307	0	0	0
51	1	1	0.0	-0.49999999999999994	43.43524478543751	0	0	0
52	1	1	0.0	0.0	44.30127018922195	0	0	0
53	1	1	0.0	-0.49999999999999994	45.16729559300639	0	0	0
54	1	1	0.0	0.0	46.033320996790835	0	0	0
55	1	1	0.0	-0.49999999999999994	46.899346400575276	0	0	0
56	1	1	0.0	0.0	47.76537180435972	0	0	0
57	1	1	0.0	-0.49999999999999994	48.63139720814416	0	0	0
58	1	1	0.0	0.0	49.4974226119286	0	0	0
59	1	1	0.0	-0.49999999999999994	50.36344801571304	0	0	0
60	1	1	0.0	0.0	51.22947341949748	0	0	0
61	1	1	0.0	-0.49999999999999994	52.09549882328192	0	0	0
62	1	1	0.0	0.0	52.96152422706636	0	0	0
63	1	1	0.0	-0.49999999999999994	53.827549630850804	0	0	0
64	1	1	0.0	0.0	54.693575034635245	0	0	0
65	1	1	0.0	-0.49999999999999994	55.559600438419686	0	0	0
66	1	1	0.0	0.0	56.42562584220413	0	0	0
67	1	1	0.0	-0.49999999999999994	57.29165124598857	0	0	0
68	1	1	0.0	0.0	58.15767664977301	0	0	0
69	1	1	0.0	-0.49999999999999994	59.02370205355745	0	0	0
70	1	1	0.0	0.0	59.88972745734189	0	0	0
71	1	1	0.0	-0.49999999999999994	60.75575286112633	0	0	0
72	1	1	0.0	0.0	61.62177826491077	0	0	0
73	1	1	0.0	-0.49999999999999994	62.487803668695214	0	0	0
74	1	1	0.0	0.0	63.353829072479655	0	0	0
75	1	1	0.0	-0.49999999999999994	64.21985447626409	0	0	0
76	1	1	0.0	0.0	65.08587988004852	0	0	0
77	1	1	0.0	-0.49999999999999994	65.95190528383296	0	0	0
78	1	1	0.0	0.0	66.81793068761739	0	0	0
79	1	1	0.0	-0.49999999999999994	67.68395609140183	0	0	0
80	1	1	0.0	0.0	68.54998149518626	0	0	0
81	1	1	0.0	-0.49999999999999994	69.41600689897069	0	0	0
82	1	1	0.0	0.0	70.28203230275513	0	0	0
83	1	1	0.0	-0.49999999999999994	71.14805770653956	0	0	0
84	1	1	0.0	0.0	72.014083110324	0	0	0
85	1	1	0.0	-0.49999999999999994	72.88010851410843	0	0	0
86	1	1	0.0	0.0	73.74613391789286	0	0	0
87	1	1	0.0	-0.49999999999999994	74.6121593216773	0	0	0
88	1	1	0.0	0.0	75.47818472546173	0	0	0
89	1	1	0.0	-0.49999999999999994	76.34421012924616	0	0	0
90	1	1	0.0	0.0	77.2102355330306	0	0	0
91	1	1	0.0	-0.49999999999999994	78.07626093681503	0	0	0
92	1	1	0.0	0.0	78.94228634059947	0	0	0
93	1	1	0.0	-0.49999999999999994	79.8083117443839	0	0	0
94	1	1	0.0	0.0	80.67433714816833	0	0	0
95	1	1	0.0	-0.49999999999999994	81.54036255195277	0	0	0
96	1	1	0.0	0.0	82.4063879557372	0	0	0
97	1	1	0.0	-0.49999999999999994	83.27241335952164	0	0	0
98	1	1	0.0	0.0	84.13843876330607	0	0	0
99	1	1	0.0	-0.49999999999999994	85.0044641670905	0	0	0
100	1	1	0.0	0.0	85.87048957087494	0	0	0
101	1	1	0.0	-0.49999999999999994	86.73651497465937	0	0	0
102	1	1	0.0	0.0	87.6025403784438	0	0	0
103	1	1	0.0	-0.49999999999999994	88.46856578222824	0	0	0
104	1	1	0.0	0.0	89.33459118601267	0	0	0
105	1	1	0.0	-0.49999999999999994	90.20061658979711	0	0	0
106	1	1	0.0	0.0	91.06664199358154	0	0	0
107	1	1	0.0	-0.49999999999999994	91.93266739736598	0	0	0
108	1	1	0.0	0.0	92.79869280115041	0	0	0
109	1	1	0.0	-0.49999999999999994	93.66471820493484	0	0	0
110	1	1	0.0	0.0	94.53074360871928	0	0	0
111	1	1	0.0	-0.49999999999999994	95.39676901250371	0	0	0
112	1	1	0.0	0.0	96.26279441628814	0	0	0
113	1	1	0.0	-0.49999999999999994	97.12881982007258	0	0	0
114	1	1	0.0	0.0	97.99484522385701	0	0	0
115	1	1	0.0	-0.49999999999999994	98.86087062764145	0	0	0
116	1	1	0.0	0.0	99.72689603142588	0	0	0
117	1	1	0.0	-0.49999999999999994	100.59292143521031	0	0	0
118	1	1	0.0	0.0	101.45894683899475	0	0	0
119	1	1	0.0	-0.49999999999999994	102.32497224277918	0	0	0
120	1	1	0.0	0.0	103.19099764656362	0	0	0
121	1	1	0.0	-0.49999999999999994	104.05702305034805	0	0	0
122	1	1	0.0	0.0	104.92304845413248	0	0	0
123	1	1	0.0	-0.49999999999999994	105.78907385791692	0	0	0
124	1	1	0.0	0.0	106.65509926170135	0	0	0
125	1	1	0.0	-0.49999999999999994	107.52112466548579	0	0	0
126	1	1	0.0	0.0	108.38715006927022	0	0	0
127	1	1	0.0	-0.49999999999999994	109.25317547305465	0	0	0
128	1	1	0.0	0.0	110.11920087683909	0	0	0
129	1	1	0.0	-0.49999999999999994	110.98522628062352	0	0	0
130	1	1	0.0	0.0	111.85125168440796	0	0	0
131	1	1	0.0	-0.49999999999999994	112.71727708819239	0	0	0
132	1	1	0.0	0.0	113.58330249197682	0	0	0
133	1	1	0.0	-0.49999999999999994	114.44932789576126	0	0	0
134	1	1	0.0	0.0	115.31535329954569	0	0	0
135	1	1	0.0	-0.49999999999999994	116.18137870333013	0	0	0
136	1	1	0.0	0.0	117.04740410711456	0	0	0
137	1	1	0.0	-0.49999999999999994	117.913429510899	0	0	0
138	1	1	0.0	0.0	118.77945491468343	0	0	0
139	1	1	0.0	-0.49999999999999994	119.64548031846786	0	0	0
140	1	1	0.0	0.0	120.5115057222523	0	0	0
141	1	1	0.0	-0.49999999999999994	121.37753112603673	0	0	0
142	1	1	0.0	0.0	122.24355652982116	0	0	0
143	1	1	0.0	-0.49999999999999994	123.1095819336056	0	0	0
144	1	1	0.0	0.0	123.97560733739003	0	0	0
145	1	1	0.0	-0.49999999999999994	124.84163274117446	0	0	0
146	1	1	0.0	0.0	125.7076581449589	0	0	0
147	1	1	0.0	-0.49999999999999994	126.57368354874333	0	0	0
148	1	1	0.0	0.0	127.43970895252777	0	0	0
149	1	1	0.0	-0.49999999999999994	128.3057343563122	0	0	0
150	1	1	0.0	0.0	129.17175976009665	0	0	0
151	1	1	0.0	-0.49999999999999994	130.0377851638811	0	0	0
152	1	1	0.0	0.0	130.90381056766554	0	0	0
153	1	1	0.0	-0.49999999999999994	131.76983597145	0	0	0
154	1	1	0.0	0.0	132.63586137523444	0	0	0
155	1	1	0.0	-0.49999999999999994	133.5018867790189	0	0	0
156	1	1	0.0	0.0	134.36791218280334	0	0	0
157	1	1	0.0	-0.49999999999999994	135.23393758658779	0	0	0
158	1	1	0.0	0.0	136.09996299037223	0	0	0
159	1	1	0.0	-0.49999999999999994	136.96598839415668	0	0	0
160	1	1	0.0	0.0	137.83201379794113	0	0	0
161	1	1	0.0	-0.49999999999999994	138.69803920172558	0	0	0
162	1	1	0.0	0.0	139.56406460551003	0	0	0
163	1	1	0.0	-0.49999999999999994	140.43009000929447	0	0	0
164	1	1	0.0	0.0	141.29611541307892	0	0	0
165	1	1	0.0	-0.49999999999999994	142.16214081686337	0	0	0
166	1	1	0.0	0.0	143.02816622064782	0	0	0
167	1	1	0.0	-0.49999999999999994	143.89419162443227	0	0	0
168	1	1	0.0	0.0	144.76021702821672	0	0	0
169	1	1	0.0	-0.49999999999999994	145.62624243200116	0	0	0
170	1	1	0.0	0.0	146.4922678357856	0	0	0
171	1	1	0.0	-0.49999999999999994	147.35829323957006	0	0	0
172	1	1	0.0	0.0	148.2243186433545	0	0	0
173	1	1	0.0	-0.49999999999999994	149.09034404713896	0	0	0
174	1	1	0.0	0.0	149.9563694509234	0	0	0
175	1	1	0.0	-0.49999999999999994	150.82239485470785	0	0	0
176	1	1	0.0	0.0	151.6884202584923	0	0	0
177	1	1	0.0	-0.49999999999999994	152.55444566227675	0	0	0
178	1	1	0.0	0.0	153.4204710660612	0	0	0
179	1	1	0.0	-0.49999999999999994	154.28649646984564	0	0	0
180	1	1	0.0	0.0	155.1525218736301	0	0	0
181	1	1	0.0	-0.49999999999999994	156.01854727741454	0	0	0
182	1	1	0.14947691669203397	-1.488743858541101	156.0250460137159	0	0	0
183	1	1	0.2989538333840667	-2.3482705260242054	155.5363021551748	0	0	0
184	1	1	0.44843075007609945	-3.2012984572059686	156.0363021551748	0	0	0
185	1	1	0.5979076667681322	-4.060825124689073	155.54755829663372	0	0	0
186	1	1	0.7473845834601649	-4.913853055870836	156.04755829663372	0	0	0
187	1	1	0.8968615001521977	-5.773379723353941	155.55881443809264	0	0	0
188	1	1	1.0463384168442305	-6.626407654535704	156.05881443809264	0	0	0
189	1	1	1.1958153335362631	-7.485934322018808	155.57007057955155	0	0	0
190	1	1	1.3452922502282958	-8.338962253200572	156.07007057955155	0	0	0
191	1	1	1.4947691669203285	-9.198488920683676	155.58132672101047	0	0	0
192	1	1	1.6442460836123611	-10.05151685186544	156.08132672101047	0	0	0
193	1	1	1.7937230003043938	-10.911043519348544	155.59258286246938	0	0	0
194	1	1	1.9431999169964265	-11.764071450530308	156.09258286246938	0	0	0
195	1	1	2.092676833688459	-12.623598118013412	155.6038390039283	0	0	0
196	1	1	2.242153750380492	-13.476626049195175	156.1038390039283	0	0	0
197	1	1	2.391630667072525	-14.33615271667828	155.61509514538722	0	0	0
198	1	1	2.541107583764558	-15.189180647860043	156.11509514538722	0	0	0
199	1	1	2.6905845004565907	-16.048707315343147	155.62635128684613	0	0	0
200	1	1	2.8400614171486236	-16.90173524652491	156.12635128684613	0	0	0
201	1	1	2.9895383338406565	-17.761261914008017	155.63760742830505	0	0	0
202	1	1	3.1390152505326894	-18.61428984518978	156.13760742830505	0	0	0
203	1	1	3.2884921672247223	-19.473816512672887	155.64886356976396	0	0	0
204	1	1	3.437969083916755	-20.32684444385465	156.14886356976396	0	0	0
205	1	1	3.587446000608788	-21.186371111337756	155.66011971122288	0	0	0
206	1	1	3.736922917300821	-22.03939904251952	156.16011971122288	0	0	0
207	1	1	3.886399833992854	-22.898925710002626	155.6713758526818	0	0	0
208	1	1	4.035876750684887	-23.75195364118439	156.1713758526818	0	0	0
209	1	1	4.185353667376919	-24.611480308667495	155.6826319941407	0	0	0
210	1	1	4.334830584068952	-25.46450823984926	156.1826319941407	0	0	0
211	1	1	4.484307500760984	-26.324034907332365	155.69388813559962	0	0	0
212	1	1	4.6337844174530165	-27.17706283851413	156.19388813559962	0	0	0
213	1	1	4.783261334145049	-28.036589505997235	155.70514427705854	0	0	0
214	1	1	4.932738250837081	-28.889617437178998	156.20514427705854	0	0	0
215	1	1	5.082215167529114	-29.749144104662104	155.71640041851745	0	0	0
216	1	1	5.231692084221146	-30.602172035843868	156.21640041851745	0	0	0
217	1	1	5.381169000913179	-31.461698703326974	155.72765655997637	0	0	0
218	1	1	5.530645917605211	-32.31472663450874	156.22765655997637	0	0	0
219	1	1	5.680122834297244	-33.17425330199184	155.73891270143528	0	0	0
220	1	1	5.829599750989276	-34.0272812331736	156.23891270143528	0	0	0
221	1	1	5.9790766676813085	-34.886807900656706	155.7501688428942	0	0	0
222	1	1	6.128553584373341	-35.73983583183847	156.2501688428942	0	0	0
223	1	1	6.278030501065373	-36.59936249932157	155.7614249843531	0	0	0
224	1	1	6.427507417757406	-37.452390430503335	156.2614249843531	0	0	0
225	1	1	6.576984334449438	-38.31191709798644	155.77268112581203	0	0	0
226	1	1	6.726461251141471	-39.1649450291682	156.27268112581203	0	0	0
227	1	1	6.875938167833503	-40.024471696651304	155.78393726727094	0	0	0
228	1	1	7.025415084525536	-40.87749962783307	156.28393726727094	0	0	0
229	1	1	7.174892001217568	-41.73702629531617	155.79519340872986	0	0	0
230	1	1	7.3243689179096005	-42.590054226497934	156.29519340872986	0	0	0
231	1	1	7.473845834601633	-43.449580893981036	155.80644955018877	0	0	0
232	1	1	7.623322751293665	-44.3026088251628	156.30644955018877	0	0	0
233	1	1	7.772799667985698	-45.1621354926459	155.8177056916477	0	0	0
234	1	1	7.92227658467773	-46.015163423827666	156.3177056916477	0	0	0
235	1	1	8.071753501369763	-46.87469009131077	155.8289618331066	0	0	0
236	1	1	8.221230418061795	-47.72771802249253	156.3289618331066	0	0	0
237	1	1	8.370707334753828	-48.587244689975634	155.84021797456552	0	0	0
238	1	1	8.52018425144586	-49.4402726211574	156.34021797456552	0	0	0
239	1	1	8.669661168137893	-50.2997992886405	155.85147411602443	0	0	0
240	1	1	8.819138084829925	-51.152827219822264	156.35147411602443	0	0	0
241	1	1	8.968615001521957	-52.012353887305366	155.86273025748335	0	0	0
242	1	1	9.11809191821399	-52.86538181848713	156.36273025748335	0	0	0
243	1	1	9.267568834906022	-53.72490848597023	155.87398639894226	0	0	0
244	1	1	9.417045751598055	-54.577936417151996	156.37398639894226	0	0	0
245	1	1	9.566522668290087	-55.4374630846351	155.88524254040118	0	0	0
246	1	1	9.71599958498212	-56.29049101581686	156.38524254040118	0	0	0
247	1	1	9.865476501674152	-57.150017683299964	155.8964986818601	0	0	0
248	1	1	10.014953418366185	-58.00304561448173	156.3964986818601	0	0	0
249	1	1	10.164430335058217	-58.86257228196483	155.907754823319	0	0	0
250	1	1	10.31390725175025	-59.715600213146594	156.407754823319	0	0	0
251	1	1	10.463384168442282	-60.575126880629696	155.91901096477793	0	0	0
252	1	1	10.612861085134314	-61.42815481181146	156.41901096477793	0	0	0
253	1	1	10.762338001826347	-62.28768147929456	155.93026710623684	0	0	0
254	1	1	10.91181491851838	-63.140709410476326	156.43026710623684	0	0	0
255	1	1	11.061291835210412	-64.00023607795943	155.94152324769576	0	0	0
256	1	1	11.210768751902444	-64.85326400914118	156.44152324769576	0	0	0
257	1	1	11.360245668594477	-65.7127906766243	155.95277938915467	0	0	0
258	1	1	11.509722585286509	-66.56581860780605	156.45277938915467	0	0	0
259	1	1	11.659199501978541	-67.42534527528916	155.9640355306136	0	0	0
260	1	1	11.808676418670574	-68.27837320647092	156.4640355306136	0	0	0
261	1	1	11.958153335362606	-69.13789987395403	155.9752916720725	0	0	0
262	1	1	12.107630252054639	-69.99092780513578	156.4752916720725	0	0	0
263	1	1	12.257107168746671	-70.85045447261889	155.98654781353142	0	0	0
264	1	1	12.406584085438704	-71.70348240380065	156.48654781353142	0	0	0
265	1	1	12.556061002130736	-72.56300907128376	155.99780395499033	0	0	0
266	1	1	12.705537918822769	-73.41603700246552	156.49780395499033	0	0	0
267	1	1	12.855014835514801	-74.27556366994862	156.00906009644925	0	0	0
268	1	1	13.004491752206834	-75.12859160113038	156.50906009644925	0	0	0
269	1	1	13.153968668898866	-75.98811826861349	156.02031623790816	0	0	0
270	1	1	13.303445585590898	-76.84114619979525	156.52031623790816	0	0	0
271	1	1	13.45292250228293	-77.70067286727836	156.03157237936708	0	0	0
272	1	1	13.602399418974963	-78.55370079846011	156.53157237936708	0	0	0
273	1	1	13.751876335666996	-79.41322746594322	156.042828520826	0	0	0
274	1	1	13.901353252359028	-80.26625539712498	156.542828520826	0	0	0
275	1	1	14.05083016905106	-81.12578206460809	156.0540846622849	0	0	0
276	1	1	14.200307085743093	-81.97880999578985	156.5540846622849	0	0	0
277	1	1	14.349784002435126	-82.83833666327295	156.06534080374382	0	0	0
278	1	1	14.499260919127158	-83.69136459445471	156.56534080374382	0	0	0
279	1	1	14.64873783581919	-84.55089126193782	156.07659694520274	0	0	0
280	1	1	14.798214752511223	-85.40391919311958	156.57659694520274	0	0	0
281	1	1	14.947691669203255	-86.26344586060269	156.08785308666165	0	0	0
282	1	1	15.097168585895288	-87.11647379178444	156.58785308666165	0	0	0
283	1	1	15.24664550258732	-87.97600045926755	156.09910922812057	0	0	0
284	1	1	15.396122419279353	-88.82902839044931	156.59910922812057	0	0	0
285	1	1	15.545599335971385	-89.68855505793242	156.11036536957948	0	0	0
286	1	1	15.695076252663418	-90.54158298911418	156.61036536957948	0	0	0
287	1	1	15.84455316935545	-91.40110965659728	156.1216215110384	0	0	0
288	1	1	15.994030086047482	-92.25413758777904	156.6216215110384	0	0	0
289	1	1	16.143507002739515	-93.11366425526215	156.1328776524973	0	0	0
290	1	1	16.29298391943155	-93.96669218644391	156.6328776524973	0	0	0
291	1	1	16.442460836123583	-94.82621885392702	156.14413379395623	0	0	0
292	1	1	16.591937752815618	-95.67924678510877	156.64413379395623	0	0	0
293	1	1	16.741414669507652	-96.53877345259188	156.15538993541514	0	0	0
294	1	1	16.890891586199686	-97.39180138377364	156.65538993541514	0	0	0
295	1	1	17.04036850289172	-98.25132805125675	156.16664607687406	0	0	0
296	1	1	17.189845419583754	-99.1043559824385	156.66664607687406	0	0	0
297	1	1	17.33932233627579	-99.96388264992162	156.17790221833297	0	0	0
298	1	1	17.488799252967823	-100.81691058110337	156.67790221833297	0	0	0
299	1	1	17.638276169659857	-101.67643724858648	156.1891583597919	0	0	0
300	1	1	17.78775308635189	-102.52946517976824	156.6891583597919	0	0	0
301	1	1	17.937230003043926	-103.38899184725135	156.2004145012508	0	0	0
302	1	1	18.08670691973596	-104.2420197784331	156.7004145012508	0	0	0
303	1	1	18.236183836427994	-105.10154644591621	156.21167064270972	0	0	0
304	1	1	18.38566075312003	-105.95457437709797	156.71167064270972	0	0	0
305	1	1	18.535137669812062	-106.81410104458108	156.22292678416864	0	0	0
306	1	1	18.684614586504097	-107.66712897576284	156.72292678416864	0	0	0
307	1	1	18.83409150319613	-108.52665564324595	156.23418292562755	0	0	0
308	1	1	18.983568419888165	-109.3796835744277	156.73418292562755	0	0	0
309	1	1	19.1330453365802	-110.23921024191081	156.24543906708647	0	0	0
310	1	1	19.282522253272234	-111.09223817309257	156.74543906708647	0	0	0
311	1	1	19.431999169964268	-111.95176484057568	156.25669520854538	0	0	0
312	1	1	19.581476086656302	-112.80479277175743	156.75669520854538	0	0	0
313	1	1	19.730953003348336	-113.66431943924054	156.2679513500043	0	0	0
314	1	1	19.88042992004037	-114.5173473704223	156.7679513500043	0	0	0
315	1	1	20.029906836732405	-115.37687403790541	156.2792074914632	0	0	0
316	1	1	20.17938375342444	-116.22990196908717	156.7792074914632	0	0	0
317	1	1	20.328860670116473	-117.08942863657028	156.29046363292213	0	0	0
318	1	1	20.478337586808507	-117.94245656775203	156.79046363292213	0	0	0
319	1	1	20.62781450350054	-118.80198323523514	156.30171977438104	0	0	0
320	1	1	20.777291420192576	-119.6550111664169	156.80171977438104	0	0	0
321	1	1	20.92676833688461	-120.51453783390001	156.31297591583996	0	0	0
322	1	1	21.076245253576644	-121.36756576508176	156.81297591583996	0	0	0
323	1	1	21.22572217026868	-122.22709243256487	156.32423205729887	0	0	0
324	1	1	21.375199086960713	-123.08012036374663	156.82423205729887	0	0	0
325	1	1	21.524676003652747	-123.93964703122974	156.3354881987578	0	0	0
326	1	1	21.67415292034478	-124.7926749624115	156.8354881987578	0	0	0
327	1	1	21.823629837036815	-125.6522016298946	156.3467443402167	0	0	0
328	1	1	21.97310675372885	-126.50522956107636	156.8467443402167	0	0	0
329	1	1	22.122583670420884	-127.36475622855947	156.35800048167562	0	0	0
330	1	1	22.272060587112918	-128.21778415974123	156.85800048167562	0	0	0
331	1	1	22.421537503804952	-129.07731082722432	156.36925662313453	0	0	0
332	1	1	22.571014420496986	-129.9303387584061	156.86925662313453	0	0	0
333	1	1	22.72049133718902	-130.7898654258892	156.38051276459345	0	0	0
334	1	1	22.869968253881055	-131.64289335707096	156.88051276459345	0	0	0
335	1	1	23.01944517057309	-132.50242002455406	156.39176890605236	0	0	0
336	1	1	23.168922087265123	-133.35544795573583	156.89176890605236	0	0	0
337	1	1	23.318399003957158	-134.21497462321892	156.40302504751128	0	0	0
338	1	1	23.467875920649192	-135.0680025544007	156.90302504751128	0	0	0
339	1	1	23.617352837341226	-135.9275292218838	156.4142811889702	0	0	0
340	1	1	23.76682975403326	-136.78055715306556	156.9142811889702	0	0	0
341	1	1	23.916306670725294	-137.64008382054865	156.4255373304291	0	0	0
342	1	1	24.06578358741733	-138.49311175173042	156.9255373304291	0	0	0
343	1	1	24.215260504109363	-139.35263841921352	156.43679347188802	0	0	0
344	1	1	24.364737420801397	-140.2056663503953	156.93679347188802	0	0	0
345	1	1	24.51421433749343	-141.06519301787839	156.44804961334694	0	0	0
346	1	1	24.663691254185466	-141.91822094906016	156.94804961334694	0	0	0
347	1	1	24.8131681708775	-142.77774761654325	156.45930575480585	0	0	0
348	1	1	24.962645087569534	-143.63077554772502	156.95930575480585	0	0	0
349	1	1	25.11212200426157	-144.49030221520812	156.47056189626477	0	0	0
350	1	1	25.261598920953602	-145.3433301463899	156.97056189626477	0	0	0
351	1	1	25.411075837645637	-146.20285681387298	156.48181803772368	0	0	0
352	1	1	25.56055275433767	-147.05588474505475	156.98181803772368	0	0	0
353	1	1	25.710029671029705	-147.91541141253785	156.4930741791826	0	0	0
354	1	1	25.85950658772174	-148.76843934371962	156.9930741791826	0	0	0
355	1	1	26.008983504413774	-149.62796601120272	156.50433032064151	0	0	0
356	1	1	26.158460421105808	-150.4809939423845	157.00433032064151	0	0	0
357	1	1	26.307937337797842	-151.34052060986758	156.51558646210043	0	0	0
358	1	1	26.457414254489876	-152.19354854104935	157.01558646210043	0	0	0
359	1	1	26.60689117118191	-153.05307520853245	156.52684260355934	0	0	0
360	1	1	26.756368087873945	-153.90610313971422	157.02684260355934	0	0	0
361	1	1	26.90584500456598	-154.7656298071973	156.53809874501826	0	0	0
362	1	1	-0.14947691669203397	-0.011256141458899083	156.87807394489764	0	0	0
363	1	1	-0.29895383338406667	-0.01775487776023111	157.86681780343872	0	0	0
364	1	1	-0.4484307500760994	0.8352730534215368	158.36681780343872	0	0	0
365	1	1	-0.5979076667681321	0.8287743171202048	159.3555616619798	0	0	0
366	1	1	-0.7473845834601649	1.6818022483019726	159.8555616619798	0	0	0
367	1	1	-0.8968615001521976	1.6753035120006405	160.8443055205209	0	0	0
368	1	1	-1.0463384168442302	2.5283314431824087	161.3443055205209	0	0	0
369	1	1	-1.195815333536263	2.5218327068810766	162.33304937906198	0	0	0
370	1	1	-1.3452922502282956	3.3748606380628443	162.83304937906198	0	0	0
371	1	1	-1.4947691669203282	3.3683619017615123	163.82179323760306	0	0	0
372	1	1	-1.644246083612361	4.22138983294328	164.32179323760306	0	0	0
373	1	1	-1.7937230003043936	4.2148910966419475	165.31053709614415	0	0	0
374	1	1	-1.9431999169964262	5.067919027823716	165.81053709614415	0	0	0
375	1	1	-2.092676833688459	5.061420291522383	166.79928095468523	0	0	0
376	1	1	-2.242153750380492	5.914448222704151	167.29928095468523	0	0	0
377	1	1	-2.391630667072525	5.907949486402819	168.28802481322631	0	0	0
378	1	1	-2.541107583764558	6.760977417584587	168.78802481322631	0	0	0
379	1	1	-2.6905845004565907	6.7544786812832545	169.7767686717674	0	0	0
380	1	1	-2.8400614171486236	7.607506612465023	170.2767686717674	0	0	0
381	1	1	-2.9895383338406565	7.60100787616369	171.26551253030848	0	0	0
382	1	1	-3.1390152505326894	8.454035807345457	171.76551253030848	0	0	0
383	1	1	-3.2884921672247223	8.447537071044126	172.75425638884957	0	0	0
384	1	1	-3.437969083916755	9.300565002225893	173.25425638884957	0	0	0
385	1	1	-3.587446000608788	9.294066265924561	174.24300024739065	0	0	0
386	1	1	-3.736922917300821	10.147094197106329	174.74300024739065	0	0	0
387	1	1	-3.886399833992854	10.140595460804997	175.73174410593174	0	0	0
388	1	1	-4.035876750684887	10.993623391986764	176.23174410593174	0	0	0
389	1	1	-4.185353667376919	10.987124655685433	177.22048796447282	0	0	0
390	1	1	-4.334830584068952	11.8401525868672	177.72048796447282	0	0	0
391	1	1	-4.484307500760984	11.833653850565868	178.7092318230139	0	0	0
392	1	1	-4.6337844174530165	12.686681781747636	179.2092318230139	0	0	0
393	1	1	-4.783261334145049	12.680183045446304	180.197975681555	0	0	0
394	1	1	-4.932738250837081	13.533210976628071	180.697975681555	0	0	0
395	1	1	-5.082215167529114	13.52671224032674	181.68671954009608	0	0	0
396	1	1	-5.231692084221146	14.379740171508507	182.18671954009608	0	0	0
397	1	1	-5.381169000913179	14.373241435207175	183.17546339863716	0	0	0
398	1	1	-5.530645917605211	15.226269366388943	183.67546339863716	0	0	0
399	1	1	-5.680122834297244	15.219770630087611	184.66420725717825	0	0	0
400	1	1	-5.829599750989276	16.07279856126938	185.16420725717825	0	0	0
401	1	1	-5.9790766676813085	16.06629982496805	186.15295111571933	0	0	0
402	1	1	-6.128553584373341	16.919327756149816	186.65295111571933	0	0	0
403	1	1	-6.278030501065373	16.912829019848484	187.64169497426042	0	0	0
404	1	1	-6.427507417757406	17.76585695103025	188.14169497426042	0	0	0
405	1	1	-6.576984334449438	17.75935821472892	189.1304388328015	0	0	0
406	1	1	-6.726461251141471	18.612386145910687	189.6304388328015	0	0	0
407	1	1	-6.875938167833503	18.605887409609355	190.6191826913426	0	0	0
408	1	1	-7.025415084525536	19.458915340791123	191.1191826913426	0	0	0
409	1	1	-7.174892001217568	19.45241660448979	192.10792654988367	0	0	0
410	1	1	-7.3243689179096005	20.30544453567156	192.60792654988367	0	0	0
411	1	1	-7.473845834601633	20.298945799370227	193.59667040842476	0	0	0
412	1	1	-7.623322751293665	21.151973730551994	194.09667040842476	0	0	0
413	1	1	-7.772799667985698	21.145474994250662	195.08541426696584	0	0	0
414	1	1	-7.92227658467773	21.99850292543243	195.58541426696584	0	0	0
415	1	1	-8.071753501369763	21.992004189131098	196.57415812550693	0	0	0
416	1	1	-8.221230418061795	22.845032120312865	197.07415812550693	0	0	0
417	1	1	-8.370707334753828	22.838533384011534	198.062901984048	0	0	0
418	1	1	-8.52018425144586	23.6915613151933	198.562901984048	0	0	0
419	1	1	-8.669661168137893	23.68506257889197	199.5516458425891	0	0	0
420	1	1	-8.819138084829925	24.538090510073737	200.0516458425891	0	0	0
421	1	1	-8.968615001521957	24.531591773772405	201.04038970113018	0	0	0
422	1	1	-9.11809191821399	25.384619704954172	201.54038970113018	0	0	0
423	1	1	-9.267568834906022	25.37812096865284	202.52913355967127	0	0	0
424	1	1	-9.417045751598055	26.231148899834608	203.02913355967127	0	0	0
425	1	1	-9.566522668290087	26.224650163533276	204.01787741821235	0	0	0
426	1	1	-9.71599958498212	27.077678094715043	204.51787741821235	0	0	0
427	1	1	-9.865476501674152	27.071179358413712	205.50662127675344	0	0	0
428	1	1	-10.014953418366185	27.92420728959548	206.00662127675344	0	0	0
429	1	1	-10.164430335058217	27.917708553294148	206.99536513529452	0	0	0
430	1	1	-10.31390725175025	28.770736484475915	207.49536513529452	0	0	0
431	1	1	-10.463384168442282	28.764237748174583	208.4841089938356	0	0	0
432	1	1	-10.612861085134314	29.61726567935635	208.9841089938356	0	0	0
433	1	1	-10.762338001826347	29.61076694305502	209.9728528523767	0	0	0
434	1	1	-10.91181491851838	30.463794874236786	210.4728528523767	0	0	0
435	1	1	-11.061291835210412	30.457296137935455	211.46159671091777	0	0	0
436	1	1	-11.210768751902444	31.31032406911722	211.96159671091777	0	0	0
437	1	1	-11.360245668594477	31.30382533281589	212.95034056945886	0	0	0
438	1	1	-11.509722585286509	32.15685326399766	213.45034056945886	0	0	0
439	1	1	-11.659199501978541	32.15035452769633	214.43908442799994	0	0	0
440	1	1	-11.808676418670574	33.0033824588781	214.93908442799994	0	0	0
441	1	1	-11.958153335362606	32.99688372257677	215.92782828654103	0	0	0
442	1	1	-12.107630252054639	33.84991165375854	216.42782828654103	0	0	0
443	1	1	-12.257107168746671	33.84341291745721	217.4165721450821	0	0	0
444	1	1	-12.406584085438704	34.69644084863898	217.9165721450821	0	0	0
445	1	1	-12.556061002130736	34.68994211233765	218.9053160036232	0	0	0
446	1	1	-12.705537918822769	35.54297004351942	219.4053160036232	0	0	0
447	1	1	-12.855014835514801	35.536471307218086	220.39405986216428	0	0	0
448	1	1	-13.004491752206834	36.38949923839986	220.89405986216428	0	0	0
449	1	1	-13.153968668898866	36.383000502098525	221.88280372070537	0	0	0
450	1	1	-13.303445585590898	37.236028433280296	222.38280372070537	0	0	0
451	1	1	-13.45292250228293	37.229529696978965	223.37154757924645	0	0	0
452	1	1	-13.602399418974963	38.082557628160735	223.87154757924645	0	0	0
453	1	1	-13.751876335666996	38.076058891859404	224.86029143778754	0	0	0
454	1	1	-13.901353252359028	38.929086823041175	225.36029143778754	0	0	0
455	1	1	-14.05083016905106	38.92258808673984	226.34903529632862	0	0	0
456	1	1	-14.200307085743093	39.775616017921614	226.84903529632862	0	0	0
457	1	1	-14.349784002435126	39.76911728162028	227.8377791548697	0	0	0
458	1	1	-14.499260919127158	40.62214521280205	228.3377791548697	0	0	0
459	1	1	-14.64873783581919	40.61564647650072	229.3265230134108	0	0	0
460	1	1	-14.798214752511223	41.46867440768249	229.8265230134108	0	0	0
461	1	1	-14.947691669203255	41.46217567138116	230.81526687195188	0	0	0
462	1	1	-15.097168585895288	42.31520360256293	231.31526687195188	0	0	0
463	1	1	-15.24664550258732	42.3087048662616	232.30401073049296	0	0	0
464	1	1	-15.396122419279353	43.16173279744337	232.80401073049296	0	0	0
465	1	1	-15.545599335971385	43.15523406114204	233.79275458903405	0	0	0
466	1	1	-15.695076252663418	44.00826199232381	234.29275458903405	0	0	0
467	1	1	-15.84455316935545	44.00176325602248	235.28149844757513	0	0	0
468	1	1	-15.994030086047482	44.85479118720425	235.78149844757513	0	0	0
469	1	1	-16.143507002739515	44.84829245090292	236.77024230611622	0	0	0
470	1	1	-16.29298391943155	45.70132038208469	237.27024230611622	0	0	0
471	1	1	-16.442460836123583	45.69482164578336	238.2589861646573	0	0	0
472	1	1	-16.591937752815618	46.54784957696513	238.7589861646573	0	0	0
473	1	1	-16.741414669507652	46.541350840663796	239.7477300231984	0	0	0
474	1	1	-16.890891586199686	47.39437877184557	240.2477300231984	0	0	0
475	1	1	-17.04036850289172	47.387880035544235	241.23647388173947	0	0	0
476	1	1	-17.189845419583754	48.240907966726006	241.73647388173947	0	0	0
477	1	1	-17.33932233627579	48.234409230424674	242.72521774028056	0	0	0
478	1	1	-17.488799252967823	49.087437161606445	243.22521774028056	0	0	0
479	1	1	-17.638276169659857	49.08093842530511	244.21396159882164	0	0	0