bb400nuc1bl200bn5d30tot1000V2

1001 atoms
1000 bonds
1005 angles

1 atom types
1 bond types
1 angle types

-1000 1000 xlo xhi
-1000 1000 ylo yhi
-1000 1000 zlo zhi

Masses

1 1

Atoms

1	1	1	0.0	0.0	0.0	0	0	0
2	1	1	0.0	0.0	1.0	0	0	0
3	1	1	0.0	-0.49999999999999994	1.8660254037844388	0	0	0
4	1	1	0.0	0.0	2.7320508075688776	0	0	0
5	1	1	0.0	-0.49999999999999994	3.5980762113533165	0	0	0
6	1	1	0.0	0.0	4.464101615137755	0	0	0
7	1	1	0.0	-0.49999999999999994	5.330127018922194	0	0	0
8	1	1	0.0	0.0	6.196152422706632	0	0	0
9	1	1	0.0	-0.49999999999999994	7.06217782649107	0	0	0
10	1	1	0.0	0.0	7.928203230275509	0	0	0
11	1	1	0.0	-0.49999999999999994	8.794228634059948	0	0	0
12	1	1	0.0	0.0	9.660254037844387	0	0	0
13	1	1	0.0	-0.49999999999999994	10.526279441628827	0	0	0
14	1	1	0.0	0.0	11.392304845413266	0	0	0
15	1	1	0.0	-0.49999999999999994	12.258330249197705	0	0	0
16	1	1	0.0	0.0	13.124355652982144	0	0	0
17	1	1	0.0	-0.49999999999999994	13.990381056766584	0	0	0
18	1	1	0.0	0.0	14.856406460551023	0	0	0
19	1	1	0.0	-0.49999999999999994	15.722431864335462	0	0	0
20	1	1	0.0	0.0	16.5884572681199	0	0	0
21	1	1	0.0	-0.49999999999999994	17.454482671904337	0	0	0
22	1	1	0.0	0.0	18.320508075688775	0	0	0
23	1	1	0.0	-0.49999999999999994	19.186533479473212	0	0	0
24	1	1	0.0	0.0	20.05255888325765	0	0	0
25	1	1	0.0	-0.49999999999999994	20.918584287042087	0	0	0
26	1	1	0.0	0.0	21.784609690826525	0	0	0
27	1	1	0.0	-0.49999999999999994	22.650635094610962	0	0	0
28	1	1	0.0	0.0	23.5166604983954	0	0	0
29	1	1	0.0	-0.49999999999999994	24.382685902179837	0	0	0
30	1	1	0.0	0.0	25.248711305964274	0	0	0
31	1	1	0.0	-0.49999999999999994	26.114736709748712	0	0	0
32	1	1	0.0	0.0	26.98076211353315	0	0	0
33	1	1	0.0	-0.49999999999999994	27.846787517317587	0	0	0
34	1	1	0.0	0.0	28.712812921102024	0	0	0
35	1	1	0.0	-0.49999999999999994	29.578838324886462	0	0	0
36	1	1	0.0	0.0	30.4448637286709	0	0	0
37	1	1	0.0	-0.49999999999999994	31.310889132455337	0	0	0
38	1	1	0.0	0.0	32.17691453623978	0	0	0
39	1	1	0.0	-0.49999999999999994	33.04293994002422	0	0	0
40	1	1	0.0	0.0	33.90896534380866	0	0	0
41	1	1	0.0	-0.49999999999999994	34.7749907475931	0	0	0
42	1	1	0.0	0.0	35.64101615137754	0	0	0
43	1	1	0.0	-0.49999999999999994	36.50704155516198	0	0	0
44	1	1	0.0	0.0	37.373066958946424	0	0	0
45	1	1	0.0	-0.49999999999999994	38.239092362730865	0	0	0
46	1	1	0.0	0.0	39.105117766515306	0	0	0
47	1	1	0.0	-0.49999999999999994	39.97114317029975	0	0	0
48	1	1	0.0	0.0	40.83716857408419	0	0	0
49	1	1	0.0	-0.49999999999999994	41.70319397786863	0	0	0
50	1	1	0.0	0.0	42.56921938165307	0	0	0
51	1	1	0.0	-0.49999999999999994	43.43524478543751	0	0	0
52	1	1	0.0	0.0	44.30127018922195	0	0	0
53	1	1	0.0	-0.49999999999999994	45.16729559300639	0	0	0
54	1	1	0.0	0.0	46.033320996790835	0	0	0
55	1	1	0.0	-0.49999999999999994	46.899346400575276	0	0	0
56	1	1	0.0	0.0	47.76537180435972	0	0	0
57	1	1	0.0	-0.49999999999999994	48.63139720814416	0	0	0
58	1	1	0.0	0.0	49.4974226119286	0	0	0
59	1	1	0.0	-0.49999999999999994	50.36344801571304	0	0	0
60	1	1	0.0	0.0	51.22947341949748	0	0	0
61	1	1	0.0	-0.49999999999999994	52.09549882328192	0	0	0
62	1	1	0.0	0.0	52.96152422706636	0	0	0
63	1	1	0.0	-0.49999999999999994	53.827549630850804	0	0	0
64	1	1	0.0	0.0	54.693575034635245	0	0	0
65	1	1	0.0	-0.49999999999999994	55.559600438419686	0	0	0
66	1	1	0.0	0.0	56.42562584220413	0	0	0
67	1	1	0.0	-0.49999999999999994	57.29165124598857	0	0	0
68	1	1	0.0	0.0	58.15767664977301	0	0	0
69	1	1	0.0	-0.49999999999999994	59.02370205355745	0	0	0
70	1	1	0.0	0.0	59.88972745734189	0	0	0
71	1	1	0.0	-0.49999999999999994	60.75575286112633	0	0	0
72	1	1	0.0	0.0	61.62177826491077	0	0	0
73	1	1	0.0	-0.49999999999999994	62.487803668695214	0	0	0
74	1	1	0.0	0.0	63.353829072479655	0	0	0
75	1	1	0.0	-0.49999999999999994	64.21985447626409	0	0	0
76	1	1	0.0	0.0	65.08587988004852	0	0	0
77	1	1	0.0	-0.49999999999999994	65.95190528383296	0	0	0
78	1	1	0.0	0.0	66.81793068761739	0	0	0
79	1	1	0.0	-0.49999999999999994	67.68395609140183	0	0	0
80	1	1	0.0	0.0	68.54998149518626	0	0	0
81	1	1	0.0	-0.49999999999999994	69.41600689897069	0	0	0
82	1	1	0.0	0.0	70.28203230275513	0	0	0
83	1	1	0.0	-0.49999999999999994	71.14805770653956	0	0	0
84	1	1	0.0	0.0	72.014083110324	0	0	0
85	1	1	0.0	-0.49999999999999994	72.88010851410843	0	0	0
86	1	1	0.0	0.0	73.74613391789286	0	0	0
87	1	1	0.0	-0.49999999999999994	74.6121593216773	0	0	0
88	1	1	0.0	0.0	75.47818472546173	0	0	0
89	1	1	0.0	-0.49999999999999994	76.34421012924616	0	0	0
90	1	1	0.0	0.0	77.2102355330306	0	0	0
91	1	1	0.0	-0.49999999999999994	78.07626093681503	0	0	0
92	1	1	0.0	0.0	78.94228634059947	0	0	0
93	1	1	0.0	-0.49999999999999994	79.8083117443839	0	0	0
94	1	1	0.0	0.0	80.67433714816833	0	0	0
95	1	1	0.0	-0.49999999999999994	81.54036255195277	0	0	0
96	1	1	0.0	0.0	82.4063879557372	0	0	0
97	1	1	0.0	-0.49999999999999994	83.27241335952164	0	0	0
98	1	1	0.0	0.0	84.13843876330607	0	0	0
99	1	1	0.0	-0.49999999999999994	85.0044641670905	0	0	0
100	1	1	0.0	0.0	85.87048957087494	0	0	0
101	1	1	0.0	-0.49999999999999994	86.73651497465937	0	0	0
102	1	1	0.0	0.0	87.6025403784438	0	0	0
103	1	1	0.0	-0.49999999999999994	88.46856578222824	0	0	0
104	1	1	0.0	0.0	89.33459118601267	0	0	0
105	1	1	0.0	-0.49999999999999994	90.20061658979711	0	0	0
106	1	1	0.0	0.0	91.06664199358154	0	0	0
107	1	1	0.0	-0.49999999999999994	91.93266739736598	0	0	0
108	1	1	0.0	0.0	92.79869280115041	0	0	0
109	1	1	0.0	-0.49999999999999994	93.66471820493484	0	0	0
110	1	1	0.0	0.0	94.53074360871928	0	0	0
111	1	1	0.0	-0.49999999999999994	95.39676901250371	0	0	0
112	1	1	0.0	0.0	96.26279441628814	0	0	0
113	1	1	0.0	-0.49999999999999994	97.12881982007258	0	0	0
114	1	1	0.0	0.0	97.99484522385701	0	0	0
115	1	1	0.0	-0.49999999999999994	98.86087062764145	0	0	0
116	1	1	0.0	0.0	99.72689603142588	0	0	0
117	1	1	0.0	-0.49999999999999994	100.59292143521031	0	0	0
118	1	1	0.0	0.0	101.45894683899475	0	0	0
119	1	1	0.0	-0.49999999999999994	102.32497224277918	0	0	0
120	1	1	0.0	0.0	103.19099764656362	0	0	0
121	1	1	0.0	-0.49999999999999994	104.05702305034805	0	0	0
122	1	1	0.0	0.0	104.92304845413248	0	0	0
123	1	1	0.0	-0.49999999999999994	105.78907385791692	0	0	0
124	1	1	0.0	0.0	106.65509926170135	0	0	0
125	1	1	0.0	-0.49999999999999994	107.52112466548579	0	0	0
126	1	1	0.0	0.0	108.38715006927022	0	0	0
127	1	1	0.0	-0.49999999999999994	109.25317547305465	0	0	0
128	1	1	0.0	0.0	110.11920087683909	0	0	0
129	1	1	0.0	-0.49999999999999994	110.98522628062352	0	0	0
130	1	1	0.0	0.0	111.85125168440796	0	0	0
131	1	1	0.0	-0.49999999999999994	112.71727708819239	0	0	0
132	1	1	0.0	0.0	113.58330249197682	0	0	0
133	1	1	0.0	-0.49999999999999994	114.44932789576126	0	0	0
134	1	1	0.0	0.0	115.31535329954569	0	0	0
135	1	1	0.0	-0.49999999999999994	116.18137870333013	0	0	0
136	1	1	0.0	0.0	117.04740410711456	0	0	0
137	1	1	0.0	-0.49999999999999994	117.913429510899	0	0	0
138	1	1	0.0	0.0	118.77945491468343	0	0	0
139	1	1	0.0	-0.49999999999999994	119.64548031846786	0	0	0
140	1	1	0.0	0.0	120.5115057222523	0	0	0
141	1	1	0.0	-0.49999999999999994	121.37753112603673	0	0	0
142	1	1	0.0	0.0	122.24355652982116	0	0	0
143	1	1	0.0	-0.49999999999999994	123.1095819336056	0	0	0
144	1	1	0.0	0.0	123.97560733739003	0	0	0
145	1	1	0.0	-0.49999999999999994	124.84163274117446	0	0	0
146	1	1	0.0	0.0	125.7076581449589	0	0	0
147	1	1	0.0	-0.49999999999999994	126.57368354874333	0	0	0
148	1	1	0.0	0.0	127.43970895252777	0	0	0
149	1	1	0.0	-0.49999999999999994	128.3057343563122	0	0	0
150	1	1	0.0	0.0	129.17175976009665	0	0	0
151	1	1	0.0	-0.49999999999999994	130.0377851638811	0	0	0
152	1	1	0.0	0.0	130.90381056766554	0	0	0
153	1	1	0.0	-0.49999999999999994	131.76983597145	0	0	0
154	1	1	0.0	0.0	132.63586137523444	0	0	0
155	1	1	0.0	-0.49999999999999994	133.5018867790189	0	0	0
156	1	1	0.0	0.0	134.36791218280334	0	0	0
157	1	1	0.0	-0.49999999999999994	135.23393758658779	0	0	0
158	1	1	0.0	0.0	136.09996299037223	0	0	0
159	1	1	0.0	-0.49999999999999994	136.96598839415668	0	0	0
160	1	1	0.0	0.0	137.83201379794113	0	0	0
161	1	1	0.0	-0.49999999999999994	138.69803920172558	0	0	0
162	1	1	0.0	0.0	139.56406460551003	0	0	0
163	1	1	0.0	-0.49999999999999994	140.43009000929447	0	0	0
164	1	1	0.0	0.0	141.29611541307892	0	0	0
165	1	1	0.0	-0.49999999999999994	142.16214081686337	0	0	0
166	1	1	0.0	0.0	143.02816622064782	0	0	0
167	1	1	0.0	-0.49999999999999994	143.89419162443227	0	0	0
168	1	1	0.0	0.0	144.76021702821672	0	0	0
169	1	1	0.0	-0.49999999999999994	145.62624243200116	0	0	0
170	1	1	0.0	0.0	146.4922678357856	0	0	0
171	1	1	0.0	-0.49999999999999994	147.35829323957006	0	0	0
172	1	1	0.0	0.0	148.2243186433545	0	0	0
173	1	1	0.0	-0.49999999999999994	149.09034404713896	0	0	0
174	1	1	0.0	0.0	149.9563694509234	0	0	0
175	1	1	0.0	-0.49999999999999994	150.82239485470785	0	0	0
176	1	1	0.0	0.0	151.6884202584923	0	0	0
177	1	1	0.0	-0.49999999999999994	152.55444566227675	0	0	0
178	1	1	0.0	0.0	153.4204710660612	0	0	0
179	1	1	0.0	-0.49999999999999994	154.28649646984564	0	0	0
180	1	1	0.0	0.0	155.1525218736301	0	0	0
181	1	1	0.0	-0.49999999999999994	156.01854727741454	0	0	0
182	1	1	0.0	0.0	156.884572681199	0	0	0
183	1	1	0.0	-0.49999999999999994	157.75059808498344	0	0	0
184	1	1	0.0	0.0	158.61662348876789	0	0	0
185	1	1	0.0	-0.49999999999999994	159.48264889255233	0	0	0
186	1	1	0.0	0.0	160.34867429633678	0	0	0
187	1	1	0.0	-0.49999999999999994	161.21469970012123	0	0	0
188	1	1	0.0	0.0	162.08072510390568	0	0	0
189	1	1	0.0	-0.49999999999999994	162.94675050769013	0	0	0
190	1	1	0.0	0.0	163.81277591147457	0	0	0
191	1	1	0.0	-0.49999999999999994	164.67880131525902	0	0	0
192	1	1	0.0	0.0	165.54482671904347	0	0	0
193	1	1	0.0	-0.49999999999999994	166.41085212282792	0	0	0
194	1	1	0.0	0.0	167.27687752661237	0	0	0
195	1	1	0.0	-0.49999999999999994	168.14290293039682	0	0	0
196	1	1	0.0	0.0	169.00892833418126	0	0	0
197	1	1	0.0	-0.49999999999999994	169.8749537379657	0	0	0
198	1	1	0.0	0.0	170.74097914175016	0	0	0
199	1	1	0.0	-0.49999999999999994	171.6070045455346	0	0	0
200	1	1	0.0	0.0	172.47302994931906	0	0	0
201	1	1	0.0	-0.49999999999999994	173.3390553531035	0	0	0
202	1	1	-0.6775193398428001	-1.2171462919731275	173.50236101757412	0	0	0
203	1	1	-1.3550386796855949	-1.9198660312869658	173.285214725601	0	0	0
204	1	1	-2.0325580195283894	-2.4592801061301994	173.785214725601	0	0	0
205	1	1	-2.710077359371184	-3.1619998454440377	173.5680684336279	0	0	0
206	1	1	-3.3875966992139785	-3.7014139202872713	174.0680684336279	0	0	0
207	1	1	-4.0651160390567735	-4.40413365960111	173.8509221416548	0	0	0
208	1	1	-4.7426353788995685	-4.943547734444343	174.3509221416548	0	0	0
209	1	1	-5.4201547187423635	-5.646267473758181	174.13377584968168	0	0	0
210	1	1	-6.0976740585851585	-6.185681548601415	174.63377584968168	0	0	0
211	1	1	-6.7751933984279535	-6.8884012879152525	174.41662955770857	0	0	0
212	1	1	-7.4527127382707485	-7.427815362758486	174.91662955770857	0	0	0
213	1	1	-8.130232078113544	-8.130535102072324	174.69948326573547	0	0	0
214	1	1	-8.807751417956338	-8.669949176915557	175.19948326573547	0	0	0
215	1	1	-9.485270757799132	-9.372668916229395	174.98233697376236	0	0	0
216	1	1	-10.162790097641926	-9.912082991072628	175.48233697376236	0	0	0
217	1	1	-10.84030943748472	-10.614802730386467	175.26519068178925	0	0	0
218	1	1	-11.517828777327514	-11.1542168052297	175.76519068178925	0	0	0
219	1	1	-12.195348117170308	-11.856936544543538	175.54804438981614	0	0	0
220	1	1	-12.872867457013102	-12.396350619386771	176.04804438981614	0	0	0
221	1	1	-13.550386796855896	-13.09907035870061	175.83089809784303	0	0	0
222	1	1	-14.22790613669869	-13.638484433543843	176.33089809784303	0	0	0
223	1	1	-14.905425476541485	-14.341204172857681	176.11375180586992	0	0	0
224	1	1	-15.582944816384279	-14.880618247700914	176.61375180586992	0	0	0
225	1	1	-16.260464156227073	-15.583337987014753	176.39660551389682	0	0	0
226	1	1	-16.93798349606987	-16.122752061857987	176.89660551389682	0	0	0
227	1	1	-17.615502835912665	-16.825471801171826	176.6794592219237	0	0	0
228	1	1	-18.29302217575546	-17.36488587601506	177.1794592219237	0	0	0
229	1	1	-18.970541515598256	-18.067605615328898	176.9623129299506	0	0	0
230	1	1	-19.648060855441052	-18.60701969017213	177.4623129299506	0	0	0
231	1	1	-20.325580195283848	-19.30973942948597	177.2451666379775	0	0	0
232	1	1	-21.003099535126644	-19.849153504329202	177.7451666379775	0	0	0
233	1	1	-21.68061887496944	-20.55187324364304	177.52802034600438	0	0	0
234	1	1	-22.358138214812236	-21.091287318486273	178.02802034600438	0	0	0
235	1	1	-23.03565755465503	-21.794007057800112	177.81087405403127	0	0	0
236	1	1	-23.713176894497828	-22.333421132643345	178.31087405403127	0	0	0
237	1	1	-24.390696234340624	-23.036140871957183	178.09372776205817	0	0	0
238	1	1	-25.06821557418342	-23.575554946800416	178.59372776205817	0	0	0
239	1	1	-25.745734914026215	-24.278274686114255	178.37658147008506	0	0	0
240	1	1	-26.42325425386901	-24.817688760957488	178.87658147008506	0	0	0
241	1	1	-27.100773593711807	-25.520408500271326	178.65943517811195	0	0	0
242	1	1	-27.778292933554603	-26.05982257511456	179.15943517811195	0	0	0
243	1	1	-28.4558122733974	-26.762542314428398	178.94228888613884	0	0	0
244	1	1	-29.133331613240195	-27.30195638927163	179.44228888613884	0	0	0
245	1	1	-29.81085095308299	-28.00467612858547	179.22514259416573	0	0	0
246	1	1	-30.488370292925786	-28.544090203428702	179.72514259416573	0	0	0
247	1	1	-31.165889632768582	-29.24680994274254	179.50799630219262	0	0	0
248	1	1	-31.84340897261138	-29.786224017585774	180.00799630219262	0	0	0
249	1	1	-32.520928312454174	-30.488943756899612	179.79085001021951	0	0	0
250	1	1	-33.19844765229697	-31.028357831742845	180.29085001021951	0	0	0
251	1	1	-33.875966992139766	-31.731077571056684	180.0737037182464	0	0	0
252	1	1	-34.55348633198256	-32.27049164589992	180.5737037182464	0	0	0
253	1	1	-35.23100567182536	-32.97321138521375	180.3565574262733	0	0	0
254	1	1	-35.908525011668154	-33.51262546005699	180.8565574262733	0	0	0
255	1	1	-36.58604435151095	-34.21534519937082	180.6394111343002	0	0	0
256	1	1	-37.263563691353745	-34.75475927421406	181.1394111343002	0	0	0
257	1	1	-37.94108303119654	-35.457479013527895	180.92226484232708	0	0	0
258	1	1	-38.61860237103934	-35.99689308837113	181.42226484232708	0	0	0
259	1	1	-39.29612171088213	-36.699612827684966	181.20511855035397	0	0	0
260	1	1	-39.97364105072493	-37.2390269025282	181.70511855035397	0	0	0
261	1	1	-40.651160390567725	-37.94174664184204	181.48797225838086	0	0	0
262	1	1	-41.32867973041052	-38.481160716685274	181.98797225838086	0	0	0
263	1	1	-42.00619907025332	-39.18388045599911	181.77082596640776	0	0	0
264	1	1	-42.68371841009611	-39.723294530842345	182.27082596640776	0	0	0
265	1	1	-43.36123774993891	-40.42601427015618	182.05367967443465	0	0	0
266	1	1	-44.038757089781704	-40.96542834499942	182.55367967443465	0	0	0
267	1	1	-44.7162764296245	-41.66814808431325	182.33653338246154	0	0	0
268	1	1	-45.393795769467296	-42.20756215915649	182.83653338246154	0	0	0
269	1	1	-46.07131510931009	-42.91028189847032	182.61938709048843	0	0	0
270	1	1	-46.74883444915289	-43.44969597331356	183.11938709048843	0	0	0
271	1	1	-47.426353788995684	-44.152415712627395	182.90224079851532	0	0	0
272	1	1	-48.10387312883848	-44.69182978747063	183.40224079851532	0	0	0
273	1	1	-48.781392468681275	-45.394549526784466	183.1850945065422	0	0	0
274	1	1	-49.45891180852407	-45.9339636016277	183.6850945065422	0	0	0
275	1	1	-50.13643114836687	-46.63668334094154	183.4679482145691	0	0	0
276	1	1	-50.81395048820966	-47.176097415784774	183.9679482145691	0	0	0
277	1	1	-51.49146982805246	-47.87881715509861	183.750801922596	0	0	0
278	1	1	-52.168989167895255	-48.418231229941846	184.250801922596	0	0	0
279	1	1	-52.84650850773805	-49.12095096925568	184.0336556306229	0	0	0
280	1	1	-53.52402784758085	-49.66036504409892	184.5336556306229	0	0	0
281	1	1	-54.20154718742364	-50.36308478341275	184.31650933864978	0	0	0
282	1	1	-54.87906652726644	-50.90249885825599	184.81650933864978	0	0	0
283	1	1	-55.556585867109234	-51.605218597569824	184.59936304667667	0	0	0
284	1	1	-56.23410520695203	-52.14463267241306	185.09936304667667	0	0	0
285	1	1	-56.911624546794826	-52.847352411726895	184.88221675470356	0	0	0
286	1	1	-57.58914388663762	-53.38676648657013	185.38221675470356	0	0	0
287	1	1	-58.26666322648042	-54.08948622588397	185.16507046273045	0	0	0
288	1	1	-58.944182566323214	-54.6289003007272	185.66507046273045	0	0	0
289	1	1	-59.62170190616601	-55.33162004004104	185.44792417075735	0	0	0
290	1	1	-60.299221246008806	-55.871034114884274	185.94792417075735	0	0	0
291	1	1	-60.9767405858516	-56.57375385419811	185.73077787878424	0	0	0
292	1	1	-61.6542599256944	-57.113167929041346	186.23077787878424	0	0	0
293	1	1	-62.33177926553719	-57.81588766835518	186.01363158681113	0	0	0
294	1	1	-63.00929860537999	-58.35530174319842	186.51363158681113	0	0	0
295	1	1	-63.686817945222785	-59.05802148251225	186.29648529483802	0	0	0
296	1	1	-64.36433728506557	-59.59743555735549	186.79648529483802	0	0	0
297	1	1	-65.04185662490836	-60.300155296669324	186.5793390028649	0	0	0
298	1	1	-65.71937596475115	-60.83956937151256	187.0793390028649	0	0	0
299	1	1	-66.39689530459394	-61.542289110826395	186.8621927108918	0	0	0
300	1	1	-67.07441464443673	-62.08170318566963	187.3621927108918	0	0	0
301	1	1	-67.75193398427952	-62.78442292498347	187.1450464189187	0	0	0
302	1	1	-68.4294533241223	-63.3238369998267	187.6450464189187	0	0	0
303	1	1	-69.1069726639651	-64.02655673914055	187.4279001269456	0	0	0
304	1	1	-69.78449200380788	-64.56597081398378	187.9279001269456	0	0	0
305	1	1	-70.46201134365067	-65.26869055329762	187.71075383497248	0	0	0
306	1	1	-71.13953068349346	-65.80810462814085	188.21075383497248	0	0	0
307	1	1	-71.81705002333625	-66.51082436745469	187.99360754299937	0	0	0
308	1	1	-72.49456936317904	-67.05023844229792	188.49360754299937	0	0	0
309	1	1	-73.17208870302183	-67.75295818161176	188.27646125102626	0	0	0
310	1	1	-73.84960804286462	-68.292372256455	188.77646125102626	0	0	0
311	1	1	-74.5271273827074	-68.99509199576883	188.55931495905315	0	0	0
312	1	1	-75.2046467225502	-69.53450607061207	189.05931495905315	0	0	0
313	1	1	-75.88216606239298	-70.2372258099259	188.84216866708005	0	0	0
314	1	1	-76.55968540223577	-70.77663988476914	189.34216866708005	0	0	0
315	1	1	-77.23720474207856	-71.47935962408297	189.12502237510694	0	0	0
316	1	1	-77.91472408192135	-72.01877369892621	189.62502237510694	0	0	0
317	1	1	-78.59224342176414	-72.72149343824005	189.40787608313383	0	0	0
318	1	1	-79.26976276160693	-73.26090751308328	189.90787608313383	0	0	0
319	1	1	-79.94728210144972	-73.96362725239712	189.69072979116072	0	0	0
320	1	1	-80.6248014412925	-74.50304132724035	190.19072979116072	0	0	0
321	1	1	-81.3023207811353	-75.20576106655419	189.9735834991876	0	0	0
322	1	1	-81.97984012097808	-75.74517514139743	190.4735834991876	0	0	0
323	1	1	-82.65735946082087	-76.44789488071126	190.2564372072145	0	0	0
324	1	1	-83.33487880066366	-76.9873089555545	190.7564372072145	0	0	0
325	1	1	-84.01239814050645	-77.69002869486833	190.5392909152414	0	0	0
326	1	1	-84.68991748034924	-78.22944276971157	191.0392909152414	0	0	0
327	1	1	-85.36743682019203	-78.9321625090254	190.8221446232683	0	0	0
328	1	1	-86.04495616003481	-79.47157658386864	191.3221446232683	0	0	0
329	1	1	-86.7224754998776	-80.17429632318247	191.10499833129518	0	0	0
330	1	1	-87.39999483972039	-80.71371039802571	191.60499833129518	0	0	0
331	1	1	-88.07751417956318	-81.41643013733955	191.38785203932207	0	0	0
332	1	1	-88.75503351940597	-81.95584421218278	191.88785203932207	0	0	0
333	1	1	-89.43255285924876	-82.65856395149662	191.67070574734896	0	0	0
334	1	1	-90.11007219909155	-83.19797802633985	192.17070574734896	0	0	0
335	1	1	-90.78759153893434	-83.90069776565369	191.95355945537585	0	0	0
336	1	1	-91.46511087877712	-84.44011184049693	192.45355945537585	0	0	0
337	1	1	-92.14263021861991	-85.14283157981076	192.23641316340274	0	0	0
338	1	1	-92.8201495584627	-85.682245654654	192.73641316340274	0	0	0
339	1	1	-93.49766889830549	-86.38496539396783	192.51926687142964	0	0	0
340	1	1	-94.17518823814828	-86.92437946881107	193.01926687142964	0	0	0
341	1	1	-94.85270757799107	-87.6270992081249	192.80212057945653	0	0	0
342	1	1	-95.53022691783386	-88.16651328296814	193.30212057945653	0	0	0
343	1	1	-96.20774625767665	-88.86923302228197	193.08497428748342	0	0	0
344	1	1	-96.88526559751944	-89.40864709712521	193.58497428748342	0	0	0
345	1	1	-97.56278493736222	-90.11136683643905	193.3678279955103	0	0	0
346	1	1	-98.24030427720501	-90.65078091128228	193.8678279955103	0	0	0
347	1	1	-98.9178236170478	-91.35350065059612	193.6506817035372	0	0	0
348	1	1	-99.59534295689059	-91.89291472543935	194.1506817035372	0	0	0
349	1	1	-100.27286229673338	-92.59563446475319	193.9335354115641	0	0	0
350	1	1	-100.95038163657617	-93.13504853959643	194.4335354115641	0	0	0
351	1	1	-101.62790097641896	-93.83776827891026	194.21638911959099	0	0	0
352	1	1	-102.30542031626175	-94.3771823537535	194.71638911959099	0	0	0
353	1	1	-102.98293965610453	-95.07990209306733	194.49924282761788	0	0	0
354	1	1	-103.66045899594732	-95.61931616791057	194.99924282761788	0	0	0
355	1	1	-104.33797833579011	-96.3220359072244	194.78209653564477	0	0	0
356	1	1	-105.0154976756329	-96.86144998206764	195.28209653564477	0	0	0
357	1	1	-105.69301701547569	-97.56416972138148	195.06495024367166	0	0	0
358	1	1	-106.37053635531848	-98.10358379622471	195.56495024367166	0	0	0
359	1	1	-107.04805569516127	-98.80630353553855	195.34780395169855	0	0	0
360	1	1	-107.72557503500406	-99.34571761038178	195.84780395169855	0	0	0
361	1	1	-108.40309437484684	-100.04843734969562	195.63065765972544	0	0	0
362	1	1	-109.08061371468963	-100.58785142453885	196.13065765972544	0	0	0
363	1	1	-109.75813305453242	-101.29057116385269	195.91351136775233	0	0	0
364	1	1	-110.43565239437521	-101.82998523869593	196.41351136775233	0	0	0
365	1	1	-111.113171734218	-102.53270497800976	196.19636507577923	0	0	0
366	1	1	-111.79069107406079	-103.072119052853	196.69636507577923	0	0	0
367	1	1	-112.46821041390358	-103.77483879216683	196.47921878380612	0	0	0
368	1	1	-113.14572975374637	-104.31425286701007	196.97921878380612	0	0	0
369	1	1	-113.82324909358915	-105.0169726063239	196.762072491833	0	0	0
370	1	1	-114.50076843343194	-105.55638668116714	197.262072491833	0	0	0
371	1	1	-115.17828777327473	-106.25910642048098	197.0449261998599	0	0	0
372	1	1	-115.85580711311752	-106.79852049532421	197.5449261998599	0	0	0
373	1	1	-116.53332645296031	-107.50124023463805	197.3277799078868	0	0	0
374	1	1	-117.2108457928031	-108.04065430948128	197.8277799078868	0	0	0
375	1	1	-117.88836513264589	-108.74337404879512	197.61063361591368	0	0	0
376	1	1	-118.56588447248868	-109.28278812363835	198.11063361591368	0	0	0
377	1	1	-119.24340381233147	-109.98550786295219	197.89348732394058	0	0	0
378	1	1	-119.92092315217425	-110.52492193779543	198.39348732394058	0	0	0
379	1	1	-120.59844249201704	-111.22764167710926	198.17634103196747	0	0	0
380	1	1	-121.27596183185983	-111.7670557519525	198.67634103196747	0	0	0
381	1	1	-121.95348117170262	-112.46977549126633	198.45919473999436	0	0	0
382	1	1	-122.63100051154541	-113.00918956610957	198.95919473999436	0	0	0
383	1	1	-123.3085198513882	-113.7119093054234	198.74204844802125	0	0	0
384	1	1	-123.98603919123099	-114.25132338026664	199.24204844802125	0	0	0
385	1	1	-124.66355853107378	-114.95404311958048	199.02490215604814	0	0	0
386	1	1	-125.34107787091656	-115.49345719442371	199.52490215604814	0	0	0
387	1	1	-126.01859721075935	-116.19617693373755	199.30775586407503	0	0	0
388	1	1	-126.69611655060214	-116.73559100858078	199.80775586407503	0	0	0
389	1	1	-127.37363589044493	-117.43831074789462	199.59060957210193	0	0	0
390	1	1	-128.05115523028772	-117.97772482273785	200.09060957210193	0	0	0
391	1	1	-128.72867457013052	-118.68044456205169	199.87346328012882	0	0	0
392	1	1	-129.40619390997333	-119.21985863689493	200.37346328012882	0	0	0
393	1	1	-130.08371324981613	-119.92257837620876	200.1563169881557	0	0	0
394	1	1	-130.76123258965893	-120.461992451052	200.6563169881557	0	0	0
395	1	1	-131.43875192950173	-121.16471219036583	200.4391706961826	0	0	0
396	1	1	-132.11627126934454	-121.70412626520907	200.9391706961826	0	0	0
397	1	1	-132.79379060918734	-122.4068460045229	200.7220244042095	0	0	0
398	1	1	-133.47130994903014	-122.94626007936614	201.2220244042095	0	0	0
399	1	1	-134.14882928887295	-123.64897981867998	201.00487811223638	0	0	0
400	1	1	-134.82634862871575	-124.18839389352321	201.50487811223638	0	0	0
401	1	1	-135.50386796855855	-124.89111363283705	201.28773182026328	0	0	0
402	1	1	0.6775193398428068	-0.2828537080268803	174.04177509241734	0	0	0
403	1	1	1.3550386796856082	-0.4461593724974833	174.75892138439045	0	0	0
404	1	1	2.0325580195284094	0.09325470234574573	175.25892138439045	0	0	0
405	1	1	2.7100773593712106	-0.07005096212485723	175.97606767636356	0	0	0
406	1	1	3.387596699214012	0.4693631127183718	176.47606767636356	0	0	0
407	1	1	4.0651160390568135	0.3060574482477688	177.19321396833666	0	0	0
408	1	1	4.742635378899615	0.8454715230909978	177.69321396833666	0	0	0
409	1	1	5.420154718742416	0.6821658586203949	178.41036026030977	0	0	0
410	1	1	6.097674058585217	1.221579933463624	178.91036026030977	0	0	0
411	1	1	6.775193398428018	1.058274268993021	179.62750655228288	0	0	0
412	1	1	7.45271273827082	1.59768834383625	180.12750655228288	0	0	0
413	1	1	8.130232078113622	1.434382679365647	180.844652844256	0	0	0
414	1	1	8.807751417956423	1.973796754208876	181.344652844256	0	0	0
415	1	1	9.485270757799224	1.8104910897382729	182.0617991362291	0	0	0
416	1	1	10.162790097642025	2.349905164581502	182.5617991362291	0	0	0
417	1	1	10.840309437484827	2.186599500110899	183.2789454282022	0	0	0
418	1	1	11.517828777327628	2.726013574954128	183.7789454282022	0	0	0
419	1	1	12.195348117170429	2.562707910483525	184.49609172017531	0	0	0
420	1	1	12.87286745701323	3.102121985326754	184.99609172017531	0	0	0
421	1	1	13.550386796856031	2.938816320856151	185.71323801214842	0	0	0
422	1	1	14.227906136698833	3.47823039569938	186.21323801214842	0	0	0
423	1	1	14.905425476541634	3.314924731228777	186.93038430412153	0	0	0
424	1	1	15.582944816384435	3.854338806072006	187.43038430412153	0	0	0
425	1	1	16.260464156227236	3.691033141601403	188.14753059609464	0	0	0
426	1	1	16.93798349607004	4.230447216444632	188.64753059609464	0	0	0
427	1	1	17.615502835912842	4.067141551974029	189.36467688806775	0	0	0
428	1	1	18.293022175755645	4.606555626817258	189.86467688806775	0	0	0
429	1	1	18.97054151559845	4.443249962346655	190.58182318004086	0	0	0
430	1	1	19.64806085544125	4.982664037189884	191.08182318004086	0	0	0
431	1	1	20.325580195284054	4.819358372719281	191.79896947201397	0	0	0
432	1	1	21.003099535126857	5.35877244756251	192.29896947201397	0	0	0
433	1	1	21.68061887496966	5.195466783091907	193.01611576398707	0	0	0
434	1	1	22.358138214812463	5.734880857935136	193.51611576398707	0	0	0
435	1	1	23.035657554655266	5.571575193464533	194.23326205596018	0	0	0
436	1	1	23.71317689449807	6.110989268307762	194.73326205596018	0	0	0
437	1	1	24.390696234340872	5.9476836038371586	195.4504083479333	0	0	0
438	1	1	25.068215574183675	6.487097678680388	195.9504083479333	0	0	0
439	1	1	25.745734914026478	6.3237920142097845	196.6675546399064	0	0	0
440	1	1	26.42325425386928	6.863206089053014	197.1675546399064	0	0	0
441	1	1	27.100773593712084	6.6999004245824105	197.8847009318795	0	0	0
442	1	1	27.778292933554887	7.23931449942564	198.3847009318795	0	0	0
443	1	1	28.45581227339769	7.0760088349550365	199.10184722385262	0	0	0
444	1	1	29.133331613240493	7.615422909798266	199.60184722385262	0	0	0
445	1	1	29.810850953083296	7.4521172453276625	200.31899351582572	0	0	0
446	1	1	30.4883702929261	7.991531320170892	200.81899351582572	0	0	0
447	1	1	31.165889632768902	7.8282256557002885	201.53613980779883	0	0	0
448	1	1	31.843408972611705	8.367639730543518	202.03613980779883	0	0	0
449	1	1	32.52092831245451	8.204334066072915	202.75328609977194	0	0	0
450	1	1	33.19844765229731	8.743748140916145	203.25328609977194	0	0	0
451	1	1	33.875966992140114	8.580442476445542	203.97043239174505	0	0	0
452	1	1	34.55348633198292	9.119856551288771	204.47043239174505	0	0	0
453	1	1	35.23100567182572	8.95655088681817	205.18757868371816	0	0	0
454	1	1	35.90852501166852	9.495964961661398	205.68757868371816	0	0	0
455	1	1	36.586044351511326	9.332659297190796	206.40472497569127	0	0	0
456	1	1	37.26356369135413	9.872073372034025	206.90472497569127	0	0	0
457	1	1	37.94108303119693	9.708767707563423	207.62187126766437	0	0	0
458	1	1	38.618602371039735	10.248181782406652	208.12187126766437	0	0	0
459	1	1	39.29612171088254	10.08487611793605	208.83901755963748	0	0	0
460	1	1	39.97364105072534	10.624290192779279	209.33901755963748	0	0	0
461	1	1	40.651160390568144	10.460984528308677	210.0561638516106	0	0	0
462	1	1	41.32867973041095	11.000398603151906	210.5561638516106	0	0	0
463	1	1	42.00619907025375	10.837092938681304	211.2733101435837	0	0	0
464	1	1	42.68371841009655	11.376507013524533	211.7733101435837	0	0	0
465	1	1	43.361237749939356	11.21320134905393	212.4904564355568	0	0	0
466	1	1	44.03875708978216	11.75261542389716	212.9904564355568	0	0	0
467	1	1	44.71627642962496	11.589309759426557	213.70760272752992	0	0	0
468	1	1	45.393795769467765	12.128723834269787	214.20760272752992	0	0	0
469	1	1	46.07131510931057	11.965418169799184	214.92474901950303	0	0	0
470	1	1	46.74883444915337	12.504832244642413	215.42474901950303	0	0	0
471	1	1	47.426353788996174	12.341526580171811	216.14189531147613	0	0	0
472	1	1	48.10387312883898	12.88094065501504	216.64189531147613	0	0	0
473	1	1	48.78139246868178	12.717634990544438	217.35904160344924	0	0	0
474	1	1	49.45891180852458	13.257049065387667	217.85904160344924	0	0	0
475	1	1	50.136431148367386	13.093743400917065	218.57618789542235	0	0	0
476	1	1	50.81395048821019	13.633157475760294	219.07618789542235	0	0	0
477	1	1	51.49146982805299	13.469851811289692	219.79333418739546	0	0	0
478	1	1	52.168989167895795	14.009265886132921	220.29333418739546	0	0	0
479	1	1	52.8465085077386	13.845960221662319	221.01048047936857	0	0	0
480	1	1	53.5240278475814	14.385374296505548	221.51048047936857	0	0	0
481	1	1	54.201547187424204	14.222068632034945	222.22762677134168	0	0	0
482	1	1	54.87906652726701	14.761482706878175	222.72762677134168	0	0	0
483	1	1	55.55658586710981	14.598177042407572	223.44477306331478	0	0	0
484	1	1	56.23410520695261	15.137591117250802	223.94477306331478	0	0	0
485	1	1	56.911624546795416	14.9742854527802	224.6619193552879	0	0	0