bb480nuc1bl240bn5d30tot1200V2

1201 atoms
1200 bonds
1205 angles

1 atom types
1 bond types
1 angle types

-1000 1000 xlo xhi
-1000 1000 ylo yhi
-1000 1000 zlo zhi

Masses

1 1

Atoms

1	1	1	0.0	0.0	0.0	0	0	0
2	1	1	0.0	0.0	1.0	0	0	0
3	1	1	0.0	-0.49999999999999994	1.8660254037844388	0	0	0
4	1	1	0.0	0.0	2.7320508075688776	0	0	0
5	1	1	0.0	-0.49999999999999994	3.5980762113533165	0	0	0
6	1	1	0.0	0.0	4.464101615137755	0	0	0
7	1	1	0.0	-0.49999999999999994	5.330127018922194	0	0	0
8	1	1	0.0	0.0	6.196152422706632	0	0	0
9	1	1	0.0	-0.49999999999999994	7.06217782649107	0	0	0
10	1	1	0.0	0.0	7.928203230275509	0	0	0
11	1	1	0.0	-0.49999999999999994	8.794228634059948	0	0	0
12	1	1	0.0	0.0	9.660254037844387	0	0	0
13	1	1	0.0	-0.49999999999999994	10.526279441628827	0	0	0
14	1	1	0.0	0.0	11.392304845413266	0	0	0
15	1	1	0.0	-0.49999999999999994	12.258330249197705	0	0	0
16	1	1	0.0	0.0	13.124355652982144	0	0	0
17	1	1	0.0	-0.49999999999999994	13.990381056766584	0	0	0
18	1	1	0.0	0.0	14.856406460551023	0	0	0
19	1	1	0.0	-0.49999999999999994	15.722431864335462	0	0	0
20	1	1	0.0	0.0	16.5884572681199	0	0	0
21	1	1	0.0	-0.49999999999999994	17.454482671904337	0	0	0
22	1	1	0.0	0.0	18.320508075688775	0	0	0
23	1	1	0.0	-0.49999999999999994	19.186533479473212	0	0	0
24	1	1	0.0	0.0	20.05255888325765	0	0	0
25	1	1	0.0	-0.49999999999999994	20.918584287042087	0	0	0
26	1	1	0.0	0.0	21.784609690826525	0	0	0
27	1	1	0.0	-0.49999999999999994	22.650635094610962	0	0	0
28	1	1	0.0	0.0	23.5166604983954	0	0	0
29	1	1	0.0	-0.49999999999999994	24.382685902179837	0	0	0
30	1	1	0.0	0.0	25.248711305964274	0	0	0
31	1	1	0.0	-0.49999999999999994	26.114736709748712	0	0	0
32	1	1	0.0	0.0	26.98076211353315	0	0	0
33	1	1	0.0	-0.49999999999999994	27.846787517317587	0	0	0
34	1	1	0.0	0.0	28.712812921102024	0	0	0
35	1	1	0.0	-0.49999999999999994	29.578838324886462	0	0	0
36	1	1	0.0	0.0	30.4448637286709	0	0	0
37	1	1	0.0	-0.49999999999999994	31.310889132455337	0	0	0
38	1	1	0.0	0.0	32.17691453623978	0	0	0
39	1	1	0.0	-0.49999999999999994	33.04293994002422	0	0	0
40	1	1	0.0	0.0	33.90896534380866	0	0	0
41	1	1	0.0	-0.49999999999999994	34.7749907475931	0	0	0
42	1	1	0.0	0.0	35.64101615137754	0	0	0
43	1	1	0.0	-0.49999999999999994	36.50704155516198	0	0	0
44	1	1	0.0	0.0	37.373066958946424	0	0	0
45	1	1	0.0	-0.49999999999999994	38.239092362730865	0	0	0
46	1	1	0.0	0.0	39.105117766515306	0	0	0
47	1	1	0.0	-0.49999999999999994	39.97114317029975	0	0	0
48	1	1	0.0	0.0	40.83716857408419	0	0	0
49	1	1	0.0	-0.49999999999999994	41.70319397786863	0	0	0
50	1	1	0.0	0.0	42.56921938165307	0	0	0
51	1	1	0.0	-0.49999999999999994	43.43524478543751	0	0	0
52	1	1	0.0	0.0	44.30127018922195	0	0	0
53	1	1	0.0	-0.49999999999999994	45.16729559300639	0	0	0
54	1	1	0.0	0.0	46.033320996790835	0	0	0
55	1	1	0.0	-0.49999999999999994	46.899346400575276	0	0	0
56	1	1	0.0	0.0	47.76537180435972	0	0	0
57	1	1	0.0	-0.49999999999999994	48.63139720814416	0	0	0
58	1	1	0.0	0.0	49.4974226119286	0	0	0
59	1	1	0.0	-0.49999999999999994	50.36344801571304	0	0	0
60	1	1	0.0	0.0	51.22947341949748	0	0	0
61	1	1	0.0	-0.49999999999999994	52.09549882328192	0	0	0
62	1	1	0.0	0.0	52.96152422706636	0	0	0
63	1	1	0.0	-0.49999999999999994	53.827549630850804	0	0	0
64	1	1	0.0	0.0	54.693575034635245	0	0	0
65	1	1	0.0	-0.49999999999999994	55.559600438419686	0	0	0
66	1	1	0.0	0.0	56.42562584220413	0	0	0
67	1	1	0.0	-0.49999999999999994	57.29165124598857	0	0	0
68	1	1	0.0	0.0	58.15767664977301	0	0	0
69	1	1	0.0	-0.49999999999999994	59.02370205355745	0	0	0
70	1	1	0.0	0.0	59.88972745734189	0	0	0
71	1	1	0.0	-0.49999999999999994	60.75575286112633	0	0	0
72	1	1	0.0	0.0	61.62177826491077	0	0	0
73	1	1	0.0	-0.49999999999999994	62.487803668695214	0	0	0
74	1	1	0.0	0.0	63.353829072479655	0	0	0
75	1	1	0.0	-0.49999999999999994	64.21985447626409	0	0	0
76	1	1	0.0	0.0	65.08587988004852	0	0	0
77	1	1	0.0	-0.49999999999999994	65.95190528383296	0	0	0
78	1	1	0.0	0.0	66.81793068761739	0	0	0
79	1	1	0.0	-0.49999999999999994	67.68395609140183	0	0	0
80	1	1	0.0	0.0	68.54998149518626	0	0	0
81	1	1	0.0	-0.49999999999999994	69.41600689897069	0	0	0
82	1	1	0.0	0.0	70.28203230275513	0	0	0
83	1	1	0.0	-0.49999999999999994	71.14805770653956	0	0	0
84	1	1	0.0	0.0	72.014083110324	0	0	0
85	1	1	0.0	-0.49999999999999994	72.88010851410843	0	0	0
86	1	1	0.0	0.0	73.74613391789286	0	0	0
87	1	1	0.0	-0.49999999999999994	74.6121593216773	0	0	0
88	1	1	0.0	0.0	75.47818472546173	0	0	0
89	1	1	0.0	-0.49999999999999994	76.34421012924616	0	0	0
90	1	1	0.0	0.0	77.2102355330306	0	0	0
91	1	1	0.0	-0.49999999999999994	78.07626093681503	0	0	0
92	1	1	0.0	0.0	78.94228634059947	0	0	0
93	1	1	0.0	-0.49999999999999994	79.8083117443839	0	0	0
94	1	1	0.0	0.0	80.67433714816833	0	0	0
95	1	1	0.0	-0.49999999999999994	81.54036255195277	0	0	0
96	1	1	0.0	0.0	82.4063879557372	0	0	0
97	1	1	0.0	-0.49999999999999994	83.27241335952164	0	0	0
98	1	1	0.0	0.0	84.13843876330607	0	0	0
99	1	1	0.0	-0.49999999999999994	85.0044641670905	0	0	0
100	1	1	0.0	0.0	85.87048957087494	0	0	0
101	1	1	0.0	-0.49999999999999994	86.73651497465937	0	0	0
102	1	1	0.0	0.0	87.6025403784438	0	0	0
103	1	1	0.0	-0.49999999999999994	88.46856578222824	0	0	0
104	1	1	0.0	0.0	89.33459118601267	0	0	0
105	1	1	0.0	-0.49999999999999994	90.20061658979711	0	0	0
106	1	1	0.0	0.0	91.06664199358154	0	0	0
107	1	1	0.0	-0.49999999999999994	91.93266739736598	0	0	0
108	1	1	0.0	0.0	92.79869280115041	0	0	0
109	1	1	0.0	-0.49999999999999994	93.66471820493484	0	0	0
110	1	1	0.0	0.0	94.53074360871928	0	0	0
111	1	1	0.0	-0.49999999999999994	95.39676901250371	0	0	0
112	1	1	0.0	0.0	96.26279441628814	0	0	0
113	1	1	0.0	-0.49999999999999994	97.12881982007258	0	0	0
114	1	1	0.0	0.0	97.99484522385701	0	0	0
115	1	1	0.0	-0.49999999999999994	98.86087062764145	0	0	0
116	1	1	0.0	0.0	99.72689603142588	0	0	0
117	1	1	0.0	-0.49999999999999994	100.59292143521031	0	0	0
118	1	1	0.0	0.0	101.45894683899475	0	0	0
119	1	1	0.0	-0.49999999999999994	102.32497224277918	0	0	0
120	1	1	0.0	0.0	103.19099764656362	0	0	0
121	1	1	0.0	-0.49999999999999994	104.05702305034805	0	0	0
122	1	1	0.0	0.0	104.92304845413248	0	0	0
123	1	1	0.0	-0.49999999999999994	105.78907385791692	0	0	0
124	1	1	0.0	0.0	106.65509926170135	0	0	0
125	1	1	0.0	-0.49999999999999994	107.52112466548579	0	0	0
126	1	1	0.0	0.0	108.38715006927022	0	0	0
127	1	1	0.0	-0.49999999999999994	109.25317547305465	0	0	0
128	1	1	0.0	0.0	110.11920087683909	0	0	0
129	1	1	0.0	-0.49999999999999994	110.98522628062352	0	0	0
130	1	1	0.0	0.0	111.85125168440796	0	0	0
131	1	1	0.0	-0.49999999999999994	112.71727708819239	0	0	0
132	1	1	0.0	0.0	113.58330249197682	0	0	0
133	1	1	0.0	-0.49999999999999994	114.44932789576126	0	0	0
134	1	1	0.0	0.0	115.31535329954569	0	0	0
135	1	1	0.0	-0.49999999999999994	116.18137870333013	0	0	0
136	1	1	0.0	0.0	117.04740410711456	0	0	0
137	1	1	0.0	-0.49999999999999994	117.913429510899	0	0	0
138	1	1	0.0	0.0	118.77945491468343	0	0	0
139	1	1	0.0	-0.49999999999999994	119.64548031846786	0	0	0
140	1	1	0.0	0.0	120.5115057222523	0	0	0
141	1	1	0.0	-0.49999999999999994	121.37753112603673	0	0	0
142	1	1	0.0	0.0	122.24355652982116	0	0	0
143	1	1	0.0	-0.49999999999999994	123.1095819336056	0	0	0
144	1	1	0.0	0.0	123.97560733739003	0	0	0
145	1	1	0.0	-0.49999999999999994	124.84163274117446	0	0	0
146	1	1	0.0	0.0	125.7076581449589	0	0	0
147	1	1	0.0	-0.49999999999999994	126.57368354874333	0	0	0
148	1	1	0.0	0.0	127.43970895252777	0	0	0
149	1	1	0.0	-0.49999999999999994	128.3057343563122	0	0	0
150	1	1	0.0	0.0	129.17175976009665	0	0	0
151	1	1	0.0	-0.49999999999999994	130.0377851638811	0	0	0
152	1	1	0.0	0.0	130.90381056766554	0	0	0
153	1	1	0.0	-0.49999999999999994	131.76983597145	0	0	0
154	1	1	0.0	0.0	132.63586137523444	0	0	0
155	1	1	0.0	-0.49999999999999994	133.5018867790189	0	0	0
156	1	1	0.0	0.0	134.36791218280334	0	0	0
157	1	1	0.0	-0.49999999999999994	135.23393758658779	0	0	0
158	1	1	0.0	0.0	136.09996299037223	0	0	0
159	1	1	0.0	-0.49999999999999994	136.96598839415668	0	0	0
160	1	1	0.0	0.0	137.83201379794113	0	0	0
161	1	1	0.0	-0.49999999999999994	138.69803920172558	0	0	0
162	1	1	0.0	0.0	139.56406460551003	0	0	0
163	1	1	0.0	-0.49999999999999994	140.43009000929447	0	0	0
164	1	1	0.0	0.0	141.29611541307892	0	0	0
165	1	1	0.0	-0.49999999999999994	142.16214081686337	0	0	0
166	1	1	0.0	0.0	143.02816622064782	0	0	0
167	1	1	0.0	-0.49999999999999994	143.89419162443227	0	0	0
168	1	1	0.0	0.0	144.76021702821672	0	0	0
169	1	1	0.0	-0.49999999999999994	145.62624243200116	0	0	0
170	1	1	0.0	0.0	146.4922678357856	0	0	0
171	1	1	0.0	-0.49999999999999994	147.35829323957006	0	0	0
172	1	1	0.0	0.0	148.2243186433545	0	0	0
173	1	1	0.0	-0.49999999999999994	149.09034404713896	0	0	0
174	1	1	0.0	0.0	149.9563694509234	0	0	0
175	1	1	0.0	-0.49999999999999994	150.82239485470785	0	0	0
176	1	1	0.0	0.0	151.6884202584923	0	0	0
177	1	1	0.0	-0.49999999999999994	152.55444566227675	0	0	0
178	1	1	0.0	0.0	153.4204710660612	0	0	0
179	1	1	0.0	-0.49999999999999994	154.28649646984564	0	0	0
180	1	1	0.0	0.0	155.1525218736301	0	0	0
181	1	1	0.0	-0.49999999999999994	156.01854727741454	0	0	0
182	1	1	0.0	0.0	156.884572681199	0	0	0
183	1	1	0.0	-0.49999999999999994	157.75059808498344	0	0	0
184	1	1	0.0	0.0	158.61662348876789	0	0	0
185	1	1	0.0	-0.49999999999999994	159.48264889255233	0	0	0
186	1	1	0.0	0.0	160.34867429633678	0	0	0
187	1	1	0.0	-0.49999999999999994	161.21469970012123	0	0	0
188	1	1	0.0	0.0	162.08072510390568	0	0	0
189	1	1	0.0	-0.49999999999999994	162.94675050769013	0	0	0
190	1	1	0.0	0.0	163.81277591147457	0	0	0
191	1	1	0.0	-0.49999999999999994	164.67880131525902	0	0	0
192	1	1	0.0	0.0	165.54482671904347	0	0	0
193	1	1	0.0	-0.49999999999999994	166.41085212282792	0	0	0
194	1	1	0.0	0.0	167.27687752661237	0	0	0
195	1	1	0.0	-0.49999999999999994	168.14290293039682	0	0	0
196	1	1	0.0	0.0	169.00892833418126	0	0	0
197	1	1	0.0	-0.49999999999999994	169.8749537379657	0	0	0
198	1	1	0.0	0.0	170.74097914175016	0	0	0
199	1	1	0.0	-0.49999999999999994	171.6070045455346	0	0	0
200	1	1	0.0	0.0	172.47302994931906	0	0	0
201	1	1	0.0	-0.49999999999999994	173.3390553531035	0	0	0
202	1	1	0.0	0.0	174.20508075688795	0	0	0
203	1	1	0.0	-0.49999999999999994	175.0711061606724	0	0	0
204	1	1	0.0	0.0	175.93713156445685	0	0	0
205	1	1	0.0	-0.49999999999999994	176.8031569682413	0	0	0
206	1	1	0.0	0.0	177.66918237202574	0	0	0
207	1	1	0.0	-0.49999999999999994	178.5352077758102	0	0	0
208	1	1	0.0	0.0	179.40123317959464	0	0	0
209	1	1	0.0	-0.49999999999999994	180.2672585833791	0	0	0
210	1	1	0.0	0.0	181.13328398716354	0	0	0
211	1	1	0.0	-0.49999999999999994	181.99930939094799	0	0	0
212	1	1	0.0	0.0	182.86533479473243	0	0	0
213	1	1	0.0	-0.49999999999999994	183.73136019851688	0	0	0
214	1	1	0.0	0.0	184.59738560230133	0	0	0
215	1	1	0.0	-0.49999999999999994	185.46341100608578	0	0	0
216	1	1	0.0	0.0	186.32943640987023	0	0	0
217	1	1	0.0	-0.49999999999999994	187.19546181365467	0	0	0
218	1	1	0.0	0.0	188.06148721743912	0	0	0
219	1	1	0.0	-0.49999999999999994	188.92751262122357	0	0	0
220	1	1	0.0	0.0	189.79353802500802	0	0	0
221	1	1	0.0	-0.49999999999999994	190.65956342879247	0	0	0
222	1	1	0.0	0.0	191.52558883257691	0	0	0
223	1	1	0.0	-0.49999999999999994	192.39161423636136	0	0	0
224	1	1	0.0	0.0	193.2576396401458	0	0	0
225	1	1	0.0	-0.49999999999999994	194.12366504393026	0	0	0
226	1	1	0.0	0.0	194.9896904477147	0	0	0
227	1	1	0.0	-0.49999999999999994	195.85571585149916	0	0	0
228	1	1	0.0	0.0	196.7217412552836	0	0	0
229	1	1	0.0	-0.49999999999999994	197.58776665906805	0	0	0
230	1	1	0.0	0.0	198.4537920628525	0	0	0
231	1	1	0.0	-0.49999999999999994	199.31981746663695	0	0	0
232	1	1	0.0	0.0	200.1858428704214	0	0	0
233	1	1	0.0	-0.49999999999999994	201.05186827420584	0	0	0
234	1	1	0.0	0.0	201.9178936779903	0	0	0
235	1	1	0.0	-0.49999999999999994	202.78391908177474	0	0	0
236	1	1	0.0	0.0	203.6499444855592	0	0	0
237	1	1	0.0	-0.49999999999999994	204.51596988934364	0	0	0
238	1	1	0.0	0.0	205.38199529312809	0	0	0
239	1	1	0.0	-0.49999999999999994	206.24802069691253	0	0	0
240	1	1	0.0	0.0	207.11404610069698	0	0	0
241	1	1	0.0	-0.49999999999999994	207.98007150448143	0	0	0
242	1	1	-0.6440177811564011	-0.24857121825148448	208.70258424849558	0	0	0
243	1	1	-1.2880355623127968	-0.3920838780217718	209.45401303024408	0	0	0
244	1	1	-1.9320533434691924	0.18691620622208716	209.95401303024408	0	0	0
245	1	1	-2.5760711246255883	0.04340354645179986	210.70544181199259	0	0	0
246	1	1	-3.220088905781984	0.6224036306956588	211.20544181199259	0	0	0
247	1	1	-3.86410668693838	0.4788909709253716	211.9568705937411	0	0	0
248	1	1	-4.508124468094776	1.0578910551692307	212.4568705937411	0	0	0
249	1	1	-5.152142249251171	0.9143783953989434	213.2082993754896	0	0	0
250	1	1	-5.796160030407567	1.4933784796428022	213.7082993754896	0	0	0
251	1	1	-6.440177811563962	1.3498658198725149	214.4597281572381	0	0	0
252	1	1	-7.0841955927203575	1.9288659041163738	214.9597281572381	0	0	0
253	1	1	-7.728213373876753	1.7853532443460864	215.7111569389866	0	0	0
254	1	1	-8.372231155033148	2.3643533285899454	216.2111569389866	0	0	0
255	1	1	-9.016248936189545	2.2208406688196582	216.9625857207351	0	0	0
256	1	1	-9.660266717345941	2.799840753063517	217.4625857207351	0	0	0
257	1	1	-10.304284498502337	2.65632809329323	218.2140145024836	0	0	0
258	1	1	-10.948302279658733	3.235328177537089	218.7140145024836	0	0	0
259	1	1	-11.59232006081513	3.091815517766802	219.4654432842321	0	0	0
260	1	1	-12.236337841971526	3.670815602010661	219.9654432842321	0	0	0
261	1	1	-12.880355623127922	3.527302942240374	220.7168720659806	0	0	0
262	1	1	-13.524373404284319	4.106303026484233	221.2168720659806	0	0	0
263	1	1	-14.168391185440715	3.962790366713946	221.9683008477291	0	0	0
264	1	1	-14.812408966597111	4.541790450957805	222.4683008477291	0	0	0
265	1	1	-15.456426747753508	4.3982777911875175	223.2197296294776	0	0	0
266	1	1	-16.100444528909904	4.977277875431376	223.7197296294776	0	0	0
267	1	1	-16.7444623100663	4.833765215661089	224.4711584112261	0	0	0
268	1	1	-17.388480091222696	5.412765299904947	224.9711584112261	0	0	0
269	1	1	-18.032497872379093	5.26925264013466	225.7225871929746	0	0	0
270	1	1	-18.67651565353549	5.8482527243785185	226.2225871929746	0	0	0
271	1	1	-19.320533434691885	5.704740064608231	226.9740159747231	0	0	0
272	1	1	-19.96455121584828	6.28374014885209	227.4740159747231	0	0	0
273	1	1	-20.608568997004678	6.140227489081802	228.2254447564716	0	0	0
274	1	1	-21.252586778161074	6.719227573325661	228.7254447564716	0	0	0
275	1	1	-21.89660455931747	6.575714913555373	229.4768735382201	0	0	0
276	1	1	-22.540622340473867	7.154714997799232	229.9768735382201	0	0	0
277	1	1	-23.184640121630263	7.011202338028944	230.7283023199686	0	0	0
278	1	1	-23.82865790278666	7.590202422272803	231.2283023199686	0	0	0
279	1	1	-24.472675683943056	7.4466897625025155	231.9797311017171	0	0	0
280	1	1	-25.116693465099452	8.025689846746374	232.4797311017171	0	0	0
281	1	1	-25.76071124625585	7.882177186976087	233.2311598834656	0	0	0
282	1	1	-26.404729027412245	8.461177271219945	233.7311598834656	0	0	0
283	1	1	-27.04874680856864	8.317664611449658	234.4825886652141	0	0	0
284	1	1	-27.692764589725037	8.896664695693516	234.9825886652141	0	0	0
285	1	1	-28.336782370881433	8.753152035923229	235.7340174469626	0	0	0
286	1	1	-28.98080015203783	9.332152120167088	236.2340174469626	0	0	0
287	1	1	-29.624817933194226	9.1886394603968	236.9854462287111	0	0	0
288	1	1	-30.268835714350622	9.767639544640659	237.4854462287111	0	0	0
289	1	1	-30.91285349550702	9.624126884870371	238.2368750104596	0	0	0
290	1	1	-31.556871276663415	10.20312696911423	238.7368750104596	0	0	0
291	1	1	-32.20088905781981	10.059614309343942	239.48830379220811	0	0	0
292	1	1	-32.8449068389762	10.638614393587801	239.98830379220811	0	0	0
293	1	1	-33.48892462013259	10.495101733817513	240.73973257395662	0	0	0
294	1	1	-34.132942401288986	11.074101818061372	241.23973257395662	0	0	0
295	1	1	-34.77696018244538	10.930589158291085	241.99116135570512	0	0	0
296	1	1	-35.42097796360177	11.509589242534943	242.49116135570512	0	0	0
297	1	1	-36.064995744758164	11.366076582764656	243.24259013745362	0	0	0
298	1	1	-36.70901352591456	11.945076667008514	243.74259013745362	0	0	0
299	1	1	-37.35303130707095	11.801564007238227	244.49401891920212	0	0	0
300	1	1	-37.99704908822734	12.380564091482086	244.99401891920212	0	0	0
301	1	1	-38.641066869383735	12.237051431711798	245.74544770095062	0	0	0
302	1	1	-39.28508465054013	12.816051515955657	246.24544770095062	0	0	0
303	1	1	-39.92910243169652	12.67253885618537	246.99687648269912	0	0	0
304	1	1	-40.57312021285291	13.251538940429228	247.49687648269912	0	0	0
305	1	1	-41.217137994009306	13.10802628065894	248.24830526444762	0	0	0
306	1	1	-41.8611557751657	13.687026364902799	248.74830526444762	0	0	0
307	1	1	-42.50517355632209	13.543513705132511	249.49973404619612	0	0	0
308	1	1	-43.149191337478484	14.12251378937637	249.99973404619612	0	0	0
309	1	1	-43.79320911863488	13.979001129606083	250.75116282794463	0	0	0
310	1	1	-44.43722689979127	14.558001213849941	251.25116282794463	0	0	0
311	1	1	-45.08124468094766	14.414488554079654	252.00259160969313	0	0	0
312	1	1	-45.725262462104055	14.993488638323512	252.50259160969313	0	0	0
313	1	1	-46.36928024326045	14.849975978553225	253.25402039144163	0	0	0
314	1	1	-47.01329802441684	15.428976062797084	253.75402039144163	0	0	0
315	1	1	-47.65731580557323	15.285463403026796	254.50544917319013	0	0	0
316	1	1	-48.301333586729626	15.864463487270655	255.00544917319013	0	0	0
317	1	1	-48.94535136788602	15.720950827500367	255.75687795493863	0	0	0
318	1	1	-49.58936914904241	16.299950911744226	256.2568779549386	0	0	0
319	1	1	-50.233386930198805	16.15643825197394	257.00830673668713	0	0	0
320	1	1	-50.8774047113552	16.735438336217797	257.50830673668713	0	0	0
321	1	1	-51.52142249251159	16.59192567644751	258.25973551843566	0	0	0
322	1	1	-52.16544027366798	17.170925760691368	258.75973551843566	0	0	0
323	1	1	-52.809458054824375	17.02741310092108	259.5111643001842	0	0	0
324	1	1	-53.45347583598077	17.60641318516494	260.0111643001842	0	0	0
325	1	1	-54.09749361713716	17.46290052539465	260.7625930819327	0	0	0
326	1	1	-54.741511398293554	18.04190060963851	261.2625930819327	0	0	0
327	1	1	-55.38552917944995	17.898387949868223	262.01402186368125	0	0	0
328	1	1	-56.02954696060634	18.47738803411208	262.51402186368125	0	0	0
329	1	1	-56.67356474176273	18.333875374341794	263.2654506454298	0	0	0
330	1	1	-57.317582522919125	18.912875458585653	263.7654506454298	0	0	0
331	1	1	-57.96160030407552	18.769362798815365	264.5168794271783	0	0	0
332	1	1	-58.60561808523191	19.348362883059224	265.0168794271783	0	0	0
333	1	1	-59.2496358663883	19.204850223288936	265.76830820892684	0	0	0
334	1	1	-59.893653647544696	19.783850307532795	266.26830820892684	0	0	0
335	1	1	-60.53767142870109	19.640337647762507	267.01973699067537	0	0	0
336	1	1	-61.18168920985748	20.219337732006366	267.51973699067537	0	0	0
337	1	1	-61.825706991013874	20.07582507223608	268.2711657724239	0	0	0
338	1	1	-62.46972477217027	20.654825156479937	268.7711657724239	0	0	0
339	1	1	-63.11374255332666	20.51131249670965	269.52259455417243	0	0	0
340	1	1	-63.75776033448305	21.09031258095351	270.02259455417243	0	0	0
341	1	1	-64.40177811563944	20.94679992118322	270.77402333592096	0	0	0
342	1	1	-65.04579589679584	21.52580000542708	271.27402333592096	0	0	0
343	1	1	-65.68981367795223	21.382287345656792	272.0254521176695	0	0	0
344	1	1	-66.33383145910862	21.96128742990065	272.5254521176695	0	0	0
345	1	1	-66.97784924026502	21.817774770130363	273.276880899418	0	0	0
346	1	1	-67.62186702142141	22.39677485437422	273.776880899418	0	0	0
347	1	1	-68.2658848025778	22.253262194603934	274.52830968116655	0	0	0
348	1	1	-68.9099025837342	22.832262278847793	275.02830968116655	0	0	0
349	1	1	-69.55392036489059	22.688749619077505	275.7797384629151	0	0	0
350	1	1	-70.19793814604698	23.267749703321364	276.2797384629151	0	0	0
351	1	1	-70.84195592720337	23.124237043551076	277.0311672446636	0	0	0
352	1	1	-71.48597370835977	23.703237127794935	277.5311672446636	0	0	0
353	1	1	-72.12999148951616	23.559724468024648	278.28259602641214	0	0	0
354	1	1	-72.77400927067255	24.138724552268506	278.78259602641214	0	0	0
355	1	1	-73.41802705182894	23.99521189249822	279.53402480816067	0	0	0
356	1	1	-74.06204483298534	24.574211976742077	280.03402480816067	0	0	0
357	1	1	-74.70606261414173	24.43069931697179	280.7854535899092	0	0	0
358	1	1	-75.35008039529812	25.00969940121565	281.2854535899092	0	0	0
359	1	1	-75.99409817645451	24.86618674144536	282.0368823716577	0	0	0
360	1	1	-76.6381159576109	25.44518682568922	282.5368823716577	0	0	0
361	1	1	-77.2821337387673	25.301674165918932	283.28831115340626	0	0	0
362	1	1	-77.92615151992369	25.88067425016279	283.78831115340626	0	0	0
363	1	1	-78.57016930108009	25.737161590392503	284.5397399351548	0	0	0
364	1	1	-79.21418708223648	26.316161674636362	285.0397399351548	0	0	0
365	1	1	-79.85820486339287	26.172649014866074	285.7911687169033	0	0	0
366	1	1	-80.50222264454926	26.751649099109933	286.2911687169033	0	0	0
367	1	1	-81.14624042570566	26.608136439339646	287.04259749865184	0	0	0
368	1	1	-81.79025820686205	27.187136523583504	287.54259749865184	0	0	0
369	1	1	-82.43427598801844	27.043623863813217	288.2940262804004	0	0	0
370	1	1	-83.07829376917483	27.622623948057075	288.7940262804004	0	0	0
371	1	1	-83.72231155033123	27.479111288286788	289.5454550621489	0	0	0
372	1	1	-84.36632933148762	28.058111372530647	290.0454550621489	0	0	0
373	1	1	-85.01034711264401	27.91459871276036	290.79688384389743	0	0	0
374	1	1	-85.6543648938004	28.493598797004218	291.29688384389743	0	0	0
375	1	1	-86.2983826749568	28.35008613723393	292.04831262564596	0	0	0
376	1	1	-86.94240045611319	28.92908622147779	292.54831262564596	0	0	0
377	1	1	-87.58641823726958	28.7855735617075	293.2997414073945	0	0	0
378	1	1	-88.23043601842598	29.36457364595136	293.7997414073945	0	0	0
379	1	1	-88.87445379958237	29.221060986181072	294.551170189143	0	0	0
380	1	1	-89.51847158073876	29.80006107042493	295.051170189143	0	0	0
381	1	1	-90.16248936189515	29.656548410654644	295.80259897089155	0	0	0
382	1	1	-90.80650714305155	30.235548494898502	296.30259897089155	0	0	0
383	1	1	-91.45052492420794	30.092035835128215	297.0540277526401	0	0	0
384	1	1	-92.09454270536433	30.671035919372073	297.5540277526401	0	0	0
385	1	1	-92.73856048652073	30.527523259601786	298.3054565343886	0	0	0
386	1	1	-93.38257826767712	31.106523343845645	298.8054565343886	0	0	0
387	1	1	-94.02659604883351	30.963010684075357	299.55688531613714	0	0	0
388	1	1	-94.6706138299899	31.542010768319216	300.05688531613714	0	0	0
389	1	1	-95.3146316111463	31.398498108548928	300.80831409788567	0	0	0
390	1	1	-95.95864939230269	31.977498192792787	301.30831409788567	0	0	0
391	1	1	-96.60266717345908	31.8339855330225	302.0597428796342	0	0	0
392	1	1	-97.24668495461547	32.41298561726636	302.5597428796342	0	0	0
393	1	1	-97.89070273577187	32.26947295749607	303.31117166138273	0	0	0
394	1	1	-98.53472051692826	32.84847304173993	303.81117166138273	0	0	0
395	1	1	-99.17873829808465	32.70496038196964	304.56260044313126	0	0	0
396	1	1	-99.82275607924105	33.2839604662135	305.06260044313126	0	0	0
397	1	1	-100.46677386039744	33.14044780644321	305.8140292248798	0	0	0
398	1	1	-101.11079164155383	33.71944789068707	306.3140292248798	0	0	0
399	1	1	-101.75480942271022	33.575935230916784	307.0654580066283	0	0	0
400	1	1	-102.39882720386662	34.15493531516064	307.5654580066283	0	0	0
401	1	1	-103.04284498502301	34.011422655390355	308.31688678837685	0	0	0
402	1	1	-103.6868627661794	34.590422739634214	308.81688678837685	0	0	0
403	1	1	-104.3308805473358	34.446910079863926	309.5683155701254	0	0	0
404	1	1	-104.97489832849219	35.025910164107785	310.0683155701254	0	0	0
405	1	1	-105.61891610964858	34.8823975043375	310.8197443518739	0	0	0
406	1	1	-106.26293389080497	35.461397588581356	311.3197443518739	0	0	0
407	1	1	-106.90695167196137	35.31788492881107	312.07117313362244	0	0	0
408	1	1	-107.55096945311776	35.89688501305493	312.57117313362244	0	0	0
409	1	1	-108.19498723427415	35.75337235328464	313.32260191537097	0	0	0
410	1	1	-108.83900501543054	36.3323724375285	313.82260191537097	0	0	0
411	1	1	-109.48302279658694	36.18885977775821	314.5740306971195	0	0	0
412	1	1	-110.12704057774333	36.76785986200207	315.0740306971195	0	0	0
413	1	1	-110.77105835889972	36.62434720223178	315.825459478868	0	0	0
414	1	1	-111.41507614005612	37.20334728647564	316.325459478868	0	0	0
415	1	1	-112.05909392121251	37.05983462670535	317.07688826061656	0	0	0
416	1	1	-112.7031117023689	37.63883471094921	317.57688826061656	0	0	0
417	1	1	-113.3471294835253	37.495322051178924	318.3283170423651	0	0	0
418	1	1	-113.99114726468169	38.07432213542278	318.8283170423651	0	0	0
419	1	1	-114.63516504583808	37.930809475652495	319.5797458241136	0	0	0
420	1	1	-115.27918282699447	38.509809559896354	320.0797458241136	0	0	0
421	1	1	-115.92320060815086	38.366296900126066	320.83117460586215	0	0	0
422	1	1	-116.56721838930726	38.945296984369925	321.33117460586215	0	0	0
423	1	1	-117.21123617046365	38.80178432459964	322.0826033876107	0	0	0
424	1	1	-117.85525395162004	39.380784408843496	322.5826033876107	0	0	0
425	1	1	-118.49927173277644	39.23727174907321	323.3340321693592	0	0	0
426	1	1	-119.14328951393283	39.81627183331707	323.8340321693592	0	0	0
427	1	1	-119.78730729508922	39.67275917354678	324.58546095110773	0	0	0
428	1	1	-120.43132507624561	40.25175925779064	325.08546095110773	0	0	0
429	1	1	-121.075342857402	40.10824659802035	325.83688973285626	0	0	0
430	1	1	-121.7193606385584	40.68724668226421	326.33688973285626	0	0	0
431	1	1	-122.36337841971479	40.54373402249392	327.0883185146048	0	0	0
432	1	1	-123.00739620087118	41.12273410673778	327.5883185146048	0	0	0
433	1	1	-123.65141398202758	40.97922144696749	328.3397472963533	0	0	0
434	1	1	-124.29543176318397	41.55822153121135	328.8397472963533	0	0	0
435	1	1	-124.93944954434036	41.414708871441064	329.59117607810185	0	0	0
436	1	1	-125.58346732549676	41.99370895568492	330.09117607810185	0	0	0
437	1	1	-126.22748510665315	41.850196295914635	330.8426048598504	0	0	0
438	1	1	-126.87150288780954	42.429196380158494	331.3426048598504	0	0	0
439	1	1	-127.51552066896593	42.28568372038821	332.0940336415989	0	0	0
440	1	1	-128.15953845012234	42.864683804632065	332.5940336415989	0	0	0
441	1	1	-128.80355623127875	42.72117114486178	333.34546242334744	0	0	0
442	1	1	-129.44757401243515	43.300171229105636	333.84546242334744	0	0	0
443	1	1	-130.09159179359156	43.15665856933535	334.596891205096	0	0	0
444	1	1	-130.73560957474797	43.73565865357921	335.096891205096	0	0	0
445	1	1	-131.37962735590438	43.59214599380892	335.8483199868445	0	0	0
446	1	1	-132.02364513706078	44.17114607805278	336.3483199868445	0	0	0
447	1	1	-132.6676629182172	44.02763341828249	337.09974876859303	0	0	0
448	1	1	-133.3116806993736	44.60663350252635	337.59974876859303	0	0	0
449	1	1	-133.95569848053	44.46312084275606	338.35117755034156	0	0	0
450	1	1	-134.5997162616864	45.04212092699992	338.85117755034156	0	0	0
451	1	1	-135.24373404284282	44.89860826722963	339.6026063320901	0	0	0
452	1	1	-135.88775182399922	45.47760835147349	340.1026063320901	0	0	0
453	1	1	-136.53176960515563	45.334095691703205	340.8540351138386	0	0	0
454	1	1	-137.17578738631204	45.91309577594706	341.3540351138386	0	0	0
455	1	1	-137.81980516746845	45.769583116176776	342.10546389558715	0	0	0
456	1	1	-138.46382294862485	46.348583200420634	342.60546389558715	0	0	0
457	1	1	-139.10784072978126	46.20507054065035	343.3568926773357	0	0	0
458	1	1	-139.75185851093767	46.784070624894206	343.8568926773357	0	0	0
459	1	1	-140.39587629209407	46.64055796512392	344.6083214590842	0	0	0
460	1	1	-141.03989407325048	47.21955804936778	345.1083214590842	0	0	0
461	1	1	-141.6839118544069	47.07604538959749	345.85975024083274	0	0	0
462	1	1	-142.3279296355633	47.65504547384135	346.35975024083274	0	0	0
463	1	1	-142.9719474167197	47.51153281407106	347.11117902258127	0	0	0
464	1	1	-143.6159651978761	48.09053289831492	347.61117902258127	0	0	0
465	1	1	-144.25998297903251	47.94702023854463	348.3626078043298	0	0	0
466	1	1	-144.90400076018892	48.52602032278849	348.8626078043298	0	0	0
467	1	1	-145.54801854134533	48.3825076630182	349.6140365860783	0	0	0
468	1	1	-146.19203632250174	48.96150774726206	350.1140365860783	0	0	0
469	1	1	-146.83605410365814	48.817995087491774	350.86546536782686	0	0	0
470	1	1	-147.48007188481455	49.39699517173563	351.36546536782686	0	0	0
471	1	1	-148.12408966597096	49.253482511965345	352.1168941495754	0	0	0
472	1	1	-148.76810744712736	49.8324825962092	352.6168941495754	0	0	0
473	1	1	-149.41212522828377	49.688969936438916	353.3683229313239	0	0	0
474	1	1	-150.05614300944018	50.267970020682775	353.8683229313239	0	0	0
475	1	1	-150.70016079059658	50.12445736091249	354.61975171307245	0	0	0
476	1	1	-151.344178571753	50.703457445156346	355.11975171307245	0	0	0
477	1	1	-151.9881963529094	50.55994478538606	355.871180494821	0	0	0
478	1	1	-152.6322141340658	51.13894486962992	356.371180494821	0	0	0
479	1	1	-153.2762319152222	50.99543220985963	357.1226092765695	0	0	0
480	1	1	-153.92024969637862	51.57443229410349	357.6226092765695	0	0	0
481	1	1	-154.56426747753503	51.4309196343332	358.37403805831804	0	0	0
482	1	1	0.6440177811563886	-1.251428781748527	208.12358416425172	0	0	0
483	1	1	1.288035562312772	-1.9739415257626831	207.8721553825032	0	0	0
484	1	1	1.9320533434691551	-2.5529416100065507	208.3721553825032	0	0	0
485	1	1	2.5760711246255386	-3.275454354020707	208.12072660075467	0	0	0
486	1	1	3.220088905781922	-3.8544544382645745	208.62072660075467	0	0	0
487	1	1	3.8641066869383054	-4.576967182278731	208.36929781900614	0	0	0
488	1	1	4.508124468094689	-5.155967266522598	208.86929781900614	0	0	0
489	1	1	5.152142249251072	-5.878480010536754	208.6178690372576	0	0	0
490	1	1	5.796160030407455	-6.457480094780622	209.1178690372576	0	0	0
491	1	1	6.440177811563838	-7.179992838794778	208.86644025550908	0	0	0
492	1	1	7.084195592720221	-7.758992923038646	209.36644025550908	0	0	0
493	1	1	7.728213373876604	-8.4815056670528	209.11501147376055	0	0	0
494	1	1	8.372231155032987	-9.060505751296668	209.61501147376055	0	0	0
495	1	1	9.01624893618937	-9.783018495310824	209.36358269201202	0	0	0
496	1	1	9.660266717345754	-10.362018579554691	209.86358269201202	0	0	0
497	1	1	10.304284498502138	-11.084531323568847	209.6121539102635	0	0	0
498	1	1	10.948302279658522	-11.663531407812714	210.1121539102635	0	0	0
499	1	1	11.592320060814906	-12.38604415182687	209.86072512851496	0	0	0