ITEM: TIMESTEP
0
ITEM: NUMBER OF ATOMS
201
ITEM: BOX BOUNDS pp pp pp
-1.0000000000000000e+03 1.0000000000000000e+03
-1.0000000000000000e+03 1.0000000000000000e+03
-1.0000000000000000e+03 1.0000000000000000e+03
ITEM: ATOMS id x y z ix iy iz
1 0.00000 0.00000 0.00000 0 0 0
2 0.00000 0.00000 1.00000 0 0 0
3 0.00000 -0.50000 1.86603 0 0 0
4 0.00000 0.00000 2.73205 0 0 0
5 0.00000 -0.50000 3.59808 0 0 0
6 0.00000 0.00000 4.46410 0 0 0
7 0.00000 -0.50000 5.33013 0 0 0
8 0.00000 0.00000 6.19615 0 0 0
9 0.00000 -0.50000 7.06218 0 0 0
10 0.00000 0.00000 7.92820 0 0 0
11 0.00000 -0.50000 8.79423 0 0 0
12 0.00000 0.00000 9.66025 0 0 0
13 0.00000 -0.50000 10.52628 0 0 0
14 0.00000 0.00000 11.39230 0 0 0
15 0.00000 -0.50000 12.25833 0 0 0
16 0.00000 0.00000 13.12436 0 0 0
17 0.00000 -0.50000 13.99038 0 0 0
18 0.00000 0.00000 14.85641 0 0 0
19 0.00000 -0.50000 15.72243 0 0 0
20 0.00000 0.00000 16.58846 0 0 0
21 0.00000 -0.50000 17.45448 0 0 0
22 0.00000 0.00000 18.32051 0 0 0
23 0.00000 -0.50000 19.18653 0 0 0
24 0.00000 0.00000 20.05256 0 0 0
25 0.00000 -0.50000 20.91858 0 0 0
26 0.00000 0.00000 21.78461 0 0 0
27 0.00000 -0.50000 22.65064 0 0 0
28 0.00000 0.00000 23.51666 0 0 0
29 0.00000 -0.50000 24.38269 0 0 0
30 0.00000 0.00000 25.24871 0 0 0
31 0.00000 -0.50000 26.11474 0 0 0
32 0.00000 0.00000 26.98076 0 0 0
33 0.00000 -0.50000 27.84679 0 0 0
34 0.00000 0.00000 28.71281 0 0 0
35 0.00000 -0.50000 29.57884 0 0 0
36 0.00000 0.00000 30.44486 0 0 0
37 0.00000 -0.50000 31.31089 0 0 0
38 0.00000 0.00000 32.17691 0 0 0
39 0.00000 -0.50000 33.04294 0 0 0
40 0.00000 0.00000 33.90897 0 0 0
41 0.00000 -0.50000 34.77499 0 0 0
42 0.00000 0.00000 35.64102 0 0 0
43 0.00000 -0.50000 36.50704 0 0 0
44 0.00000 0.00000 37.37307 0 0 0
45 0.00000 -0.50000 38.23909 0 0 0
46 0.00000 0.00000 39.10512 0 0 0
47 0.00000 -0.50000 39.97114 0 0 0
48 0.00000 0.00000 40.83717 0 0 0
49 0.00000 -0.50000 41.70319 0 0 0
50 0.00000 0.00000 42.56922 0 0 0
51 0.00000 -0.50000 43.43524 0 0 0
52 0.55060 -1.32952 43.34177 0 0 0
53 1.10120 -2.00117 42.84606 0 0 0
54 1.65180 -2.76629 43.17986 0 0 0
55 2.20239 -3.43794 42.68415 0 0 0
56 2.75299 -4.20306 43.01796 0 0 0
57 3.30359 -4.87471 42.52224 0 0 0
58 3.85419 -5.63983 42.85605 0 0 0
59 4.40479 -6.31148 42.36034 0 0 0
60 4.95539 -7.07660 42.69414 0 0 0
61 5.50599 -7.74825 42.19843 0 0 0
62 6.05658 -8.51337 42.53224 0 0 0
63 6.60718 -9.18502 42.03652 0 0 0
64 7.15778 -9.95014 42.37033 0 0 0
65 7.70838 -10.62179 41.87462 0 0 0
66 8.25898 -11.38691 42.20842 0 0 0
67 8.80958 -12.05856 41.71271 0 0 0
68 9.36018 -12.82369 42.04652 0 0 0
69 9.91077 -13.49533 41.55081 0 0 0
70 10.46137 -14.26046 41.88461 0 0 0
71 11.01197 -14.93210 41.38890 0 0 0
72 11.56257 -15.69723 41.72271 0 0 0
73 12.11317 -16.36887 41.22699 0 0 0
74 12.66377 -17.13400 41.56080 0 0 0
75 13.21437 -17.80564 41.06509 0 0 0
76 13.76497 -18.57077 41.39889 0 0 0
77 14.31556 -19.24241 40.90318 0 0 0
78 14.86616 -20.00754 41.23699 0 0 0
79 15.41676 -20.67919 40.74127 0 0 0
80 15.96736 -21.44431 41.07508 0 0 0
81 16.51796 -22.11596 40.57937 0 0 0
82 17.06856 -22.88108 40.91318 0 0 0
83 17.61916 -23.55273 40.41746 0 0 0
84 18.16975 -24.31785 40.75127 0 0 0
85 18.72035 -24.98950 40.25556 0 0 0
86 19.27095 -25.75462 40.58936 0 0 0
87 19.82155 -26.42627 40.09365 0 0 0
88 20.37215 -27.19139 40.42746 0 0 0
89 20.92275 -27.86304 39.93174 0 0 0
90 21.47335 -28.62816 40.26555 0 0 0
91 22.02394 -29.29981 39.76984 0 0 0
92 22.57454 -30.06493 40.10364 0 0 0
93 23.12514 -30.73658 39.60793 0 0 0
94 23.67574 -31.50170 39.94174 0 0 0
95 24.22634 -32.17335 39.44602 0 0 0
96 24.77694 -32.93847 39.77983 0 0 0
97 25.32754 -33.61012 39.28412 0 0 0
98 25.87813 -34.37524 39.61793 0 0 0
99 26.42873 -35.04689 39.12221 0 0 0
100 26.97933 -35.81202 39.45602 0 0 0
101 27.52993 -36.48366 38.96031 0 0 0
102 -0.93792 -0.74854 43.67719 0 0 0
103 -1.87583 -1.08476 43.76246 0 0 0
104 -2.81375 -1.17904 44.09626 0 0 0
105 -3.75166 -1.51526 44.18153 0 0 0
106 -4.68958 -1.60953 44.51533 0 0 0
107 -5.62749 -1.94575 44.60060 0 0 0
108 -6.56541 -2.04002 44.93440 0 0 0
109 -7.50333 -2.37624 45.01967 0 0 0
110 -8.44124 -2.47051 45.35347 0 0 0
111 -9.37916 -2.80673 45.43874 0 0 0
112 -10.31707 -2.90100 45.77254 0 0 0
113 -11.25499 -3.23722 45.85781 0 0 0
114 -12.19291 -3.33149 46.19161 0 0 0
115 -13.13082 -3.66771 46.27687 0 0 0
116 -14.06874 -3.76198 46.61068 0 0 0
117 -15.00665 -4.09820 46.69594 0 0 0
118 -15.94457 -4.19247 47.02975 0 0 0
119 -16.88248 -4.52869 47.11501 0 0 0
120 -17.82040 -4.62296 47.44882 0 0 0
121 -18.75832 -4.95918 47.53408 0 0 0
122 -19.69623 -5.05345 47.86789 0 0 0
123 -20.63415 -5.38968 47.95315 0 0 0
124 -21.57206 -5.48395 48.28696 0 0 0
125 -22.50998 -5.82017 48.37222 0 0 0
126 -23.44789 -5.91444 48.70603 0 0 0
127 -24.38581 -6.25066 48.79129 0 0 0
128 -25.32373 -6.34493 49.12510 0 0 0
129 -26.26164 -6.68115 49.21036 0 0 0
130 -27.19956 -6.77542 49.54417 0 0 0
131 -28.13747 -7.11164 49.62943 0 0 0
132 -29.07539 -7.20591 49.96324 0 0 0
133 -30.01331 -7.54213 50.04850 0 0 0
134 -30.95122 -7.63640 50.38231 0 0 0
135 -31.88914 -7.97262 50.46757 0 0 0
136 -32.82705 -8.06689 50.80138 0 0 0
137 -33.76497 -8.40311 50.88664 0 0 0
138 -34.70288 -8.49738 51.22045 0 0 0
139 -35.64080 -8.83360 51.30571 0 0 0
140 -36.57872 -8.92787 51.63952 0 0 0
141 -37.51663 -9.26410 51.72478 0 0 0
142 -38.45455 -9.35837 52.05859 0 0 0
143 -39.39246 -9.69459 52.14385 0 0 0
144 -40.33038 -9.78886 52.47766 0 0 0
145 -41.26830 -10.12508 52.56292 0 0 0
146 -42.20621 -10.21935 52.89673 0 0 0
147 -43.14413 -10.55557 52.98199 0 0 0
148 -44.08204 -10.64984 53.31579 0 0 0
149 -45.01996 -10.98606 53.40106 0 0 0
150 -45.95787 -11.08033 53.73486 0 0 0
151 -46.89579 -11.41655 53.82013 0 0 0
152 0.38732 0.07735 44.15403 0 0 0
153 0.77463 0.21797 45.06519 0 0 0
154 1.16195 1.07736 45.39899 0 0 0
155 1.54927 1.21797 46.31016 0 0 0
156 1.93659 2.07737 46.64396 0 0 0
157 2.32390 2.21798 47.55512 0 0 0
158 2.71122 3.07737 47.88893 0 0 0
159 3.09854 3.21798 48.80009 0 0 0
160 3.48585 4.07738 49.13390 0 0 0
161 3.87317 4.21799 50.04506 0 0 0
162 4.26049 5.07738 50.37886 0 0 0
163 4.64781 5.21800 51.29003 0 0 0
164 5.03512 6.07739 51.62383 0 0 0
165 5.42244 6.21800 52.53499 0 0 0
166 5.80976 7.07740 52.86880 0 0 0
167 6.19707 7.21801 53.77996 0 0 0
168 6.58439 8.07740 54.11377 0 0 0
169 6.97171 8.21801 55.02493 0 0 0
170 7.35903 9.07741 55.35873 0 0 0
171 7.74634 9.21802 56.26990 0 0 0
172 8.13366 10.07741 56.60370 0 0 0
173 8.52098 10.21803 57.51486 0 0 0
174 8.90830 11.07742 57.84867 0 0 0
175 9.29561 11.21803 58.75983 0 0 0
176 9.68293 12.07743 59.09364 0 0 0
177 10.07025 12.21804 60.00480 0 0 0
178 10.45756 13.07743 60.33860 0 0 0
179 10.84488 13.21804 61.24977 0 0 0
180 11.23220 14.07744 61.58357 0 0 0
181 11.61952 14.21805 62.49473 0 0 0
182 12.00683 15.07744 62.82854 0 0 0
183 12.39415 15.21806 63.73970 0 0 0
184 12.78147 16.07745 64.07351 0 0 0
185 13.16878 16.21806 64.98467 0 0 0
186 13.55610 17.07746 65.31847 0 0 0
187 13.94342 17.21807 66.22964 0 0 0
188 14.33074 18.07746 66.56344 0 0 0
189 14.71805 18.21807 67.47460 0 0 0
190 15.10537 19.07747 67.80841 0 0 0
191 15.49269 19.21808 68.71957 0 0 0
192 15.88000 20.07748 69.05338 0 0 0
193 16.26732 20.21809 69.96454 0 0 0
194 16.65464 21.07748 70.29834 0 0 0
195 17.04196 21.21809 71.20951 0 0 0
196 17.42927 22.07749 71.54331 0 0 0
197 17.81659 22.21810 72.45447 0 0 0
198 18.20391 23.07749 72.78828 0 0 0
199 18.59122 23.21811 73.69944 0 0 0
200 18.97854 24.07750 74.03325 0 0 0
201 19.36586 24.21811 74.94441 0 0 0
ITEM: TIMESTEP
1000
ITEM: NUMBER OF ATOMS
201
ITEM: BOX BOUNDS pp pp pp
-1.0000000000000000e+03 1.0000000000000000e+03
-1.0000000000000000e+03 1.0000000000000000e+03
-1.0000000000000000e+03 1.0000000000000000e+03
ITEM: ATOMS id x y z ix iy iz
1 -2.94071 -1.39406 3.89154 0 0 0
2 -3.06952 -0.94269 4.81750 0 0 0
3 -2.24253 -0.81031 5.41161 0 0 0
4 -1.80869 -0.20374 6.06085 0 0 0
5 -0.91000 -0.15250 6.54321 0 0 0
6 -1.07096 -0.61116 7.32182 0 0 0
7 -0.88601 -1.52402 7.58966 0 0 0
8 -0.78345 -0.96954 8.38131 0 0 0
9 -0.46552 -1.26724 9.28179 0 0 0
10 0.22486 -0.94037 9.86827 0 0 0
11 -0.19301 -0.31651 10.47363 0 0 0
12 0.49485 -0.45859 11.16585 0 0 0
13 1.19654 -0.37297 11.85048 0 0 0
14 1.21555 -0.06552 12.78598 0 0 0
15 0.38507 0.14211 13.26542 0 0 0
16 0.50849 0.42656 14.20095 0 0 0
17 -0.23069 -0.14838 14.46327 0 0 0
18 -0.50113 0.27573 15.32761 0 0 0
19 -0.64689 -0.16427 16.33267 0 0 0
20 -0.67102 -0.01945 17.28869 0 0 0
21 -1.09998 0.15459 18.19708 0 0 0
22 -1.19505 0.28637 19.16538 0 0 0
23 -0.78765 0.92269 19.82559 0 0 0
24 -0.60088 0.82651 20.80520 0 0 0
25 -0.49006 1.30415 21.59933 0 0 0
26 -0.34500 0.65246 22.28641 0 0 0
27 -0.38443 0.56069 23.23021 0 0 0
28 -0.13119 0.98924 24.04517 0 0 0
29 0.30668 0.68177 24.97538 0 0 0
30 0.38662 0.85007 25.99823 0 0 0
31 0.05487 0.25029 26.65795 0 0 0
32 -0.01484 0.20966 27.61604 0 0 0
33 -0.15677 -0.10071 28.58387 0 0 0
34 -0.40379 0.01708 29.47372 0 0 0
35 -0.65559 0.42918 30.33424 0 0 0
36 -1.01889 0.63959 31.18743 0 0 0
37 -0.92892 0.08796 32.04389 0 0 0
38 -1.10536 -0.06589 32.99731 0 0 0
39 -1.09677 -0.31395 33.88889 0 0 0
40 -0.83155 -0.35339 34.84449 0 0 0
41 -1.03936 -0.61629 35.73360 0 0 0
42 -1.16627 -0.10575 36.57597 0 0 0
43 -0.72306 -0.41781 37.43522 0 0 0
44 -0.89859 -0.65895 38.35834 0 0 0
45 -0.41671 -0.99057 39.15826 0 0 0
46 -1.02797 -1.72577 39.54296 0 0 0
47 -1.23558 -2.32239 40.32991 0 0 0
48 -1.30014 -1.77336 41.25668 0 0 0
49 -1.75605 -1.72728 42.13393 0 0 0
50 -1.19917 -1.60029 42.91405 0 0 0
51 -1.46887 -1.39594 43.81767 0 0 0
52 -0.82415 -2.21521 43.76743 0 0 0
53 -0.53184 -3.16214 43.95842 0 0 0
54 -0.25968 -3.65762 43.15803 0 0 0
55 0.29776 -4.45021 42.95976 0 0 0
56 1.10099 -5.00454 42.74621 0 0 0
57 1.76871 -5.60238 42.32033 0 0 0
58 2.38665 -6.44931 41.96346 0 0 0
59 2.90353 -7.29120 42.07896 0 0 0
60 3.61179 -7.73474 42.64044 0 0 0
61 4.48904 -8.16241 42.47053 0 0 0
62 4.98258 -8.95837 42.63506 0 0 0
63 5.98761 -9.30744 42.69996 0 0 0
64 6.48423 -10.14109 42.44291 0 0 0
65 7.33995 -10.54678 42.31462 0 0 0
66 7.50266 -11.47044 42.46510 0 0 0
67 7.73243 -12.36795 42.83771 0 0 0
68 8.03127 -13.33401 42.61040 0 0 0
69 8.82507 -13.95920 42.97023 0 0 0
70 9.57448 -14.59439 43.00898 0 0 0
71 10.52158 -14.86454 42.79922 0 0 0
72 11.02984 -15.39171 41.92844 0 0 0
73 11.60310 -16.23941 42.02295 0 0 0
74 12.00538 -17.16166 41.80751 0 0 0
75 12.73740 -17.77916 41.73843 0 0 0
76 13.61811 -18.08106 41.40569 0 0 0
77 14.40843 -18.71474 41.41761 0 0 0
78 14.70094 -19.25255 40.72981 0 0 0
79 15.29469 -20.08049 40.85951 0 0 0
80 15.73722 -20.79575 40.41492 0 0 0
81 16.69950 -21.22405 40.25962 0 0 0
82 17.36163 -21.64098 39.73937 0 0 0
83 17.21849 -22.69039 39.59889 0 0 0
84 17.29825 -23.61351 39.80614 0 0 0
85 17.44997 -24.55227 39.64541 0 0 0
86 17.85927 -25.30864 39.25988 0 0 0
87 18.76911 -25.82987 39.00356 0 0 0
88 19.45953 -26.45950 38.99912 0 0 0
89 19.56666 -27.41610 39.19381 0 0 0
90 20.53656 -27.50216 39.17290 0 0 0
91 21.31474 -27.78771 38.69975 0 0 0
92 22.05609 -28.54267 38.68660 0 0 0
93 22.63072 -29.17837 39.11769 0 0 0
94 22.76030 -30.12452 39.13687 0 0 0
95 23.67670 -29.84087 39.11947 0 0 0
96 24.25456 -30.62479 39.06033 0 0 0
97 24.45860 -31.42480 39.48986 0 0 0
98 24.43003 -32.35713 39.22842 0 0 0
99 24.08358 -33.27690 39.30510 0 0 0
100 23.92776 -33.28202 38.30867 0 0 0
101 23.33875 -33.09110 37.58258 0 0 0
102 -2.51855 -1.18494 43.88212 0 0 0
103 -3.30405 -0.78522 44.21312 0 0 0
104 -4.28698 -0.92834 44.19130 0 0 0
105 -5.24808 -0.73390 44.22561 0 0 0
106 -6.21690 -0.99417 44.21678 0 0 0
107 -7.14235 -1.08852 44.66733 0 0 0
108 -7.97593 -1.34609 45.05205 0 0 0
109 -8.84632 -1.17288 45.61926 0 0 0
110 -9.53366 -1.02454 46.24208 0 0 0
111 -10.30003 -1.51279 45.75560 0 0 0
112 -11.08016 -1.20113 45.29046 0 0 0
113 -12.00628 -1.19890 45.45047 0 0 0
114 -12.95410 -1.59992 45.60050 0 0 0
115 -13.64933 -2.37076 45.69121 0 0 0
116 -14.51270 -2.94105 45.90644 0 0 0
117 -15.50140 -3.04726 45.91150 0 0 0
118 -15.90533 -3.11720 46.78063 0 0 0
119 -16.78568 -3.27190 47.25531 0 0 0
120 -17.54134 -3.81126 47.48435 0 0 0
121 -18.43500 -4.15226 47.64872 0 0 0
122 -19.25174 -4.78089 47.67086 0 0 0
123 -19.96259 -5.41089 47.80768 0 0 0
124 -20.85796 -5.81435 47.76063 0 0 0
125 -21.88584 -5.82798 47.68693 0 0 0
126 -22.83823 -5.92655 47.47584 0 0 0
127 -23.70678 -6.03173 47.10771 0 0 0
128 -24.69437 -5.86145 47.32733 0 0 0
129 -25.39914 -6.44108 47.69736 0 0 0
130 -26.07578 -7.08506 47.85876 0 0 0
131 -27.04167 -7.26204 48.01538 0 0 0
132 -27.89451 -7.12489 48.39291 0 0 0
133 -28.67832 -7.68466 48.34516 0 0 0
134 -29.43388 -7.69400 49.03602 0 0 0
135 -30.04268 -8.02853 49.63724 0 0 0
136 -30.82830 -7.96895 50.17280 0 0 0
137 -31.80089 -7.59712 50.24256 0 0 0
138 -32.66365 -7.65286 50.73192 0 0 0
139 -33.13172 -7.40607 51.51681 0 0 0
140 -33.84167 -8.08242 51.58473 0 0 0
141 -34.69799 -8.49223 51.45168 0 0 0
142 -35.65149 -8.40825 51.58680 0 0 0
143 -36.51467 -8.46054 52.04539 0 0 0
144 -36.66433 -9.36408 52.41746 0 0 0
145 -36.95270 -9.45518 53.38250 0 0 0
146 -37.90420 -9.53992 53.63451 0 0 0
147 -37.75507 -9.25230 54.61073 0 0 0
148 -37.79166 -9.78178 55.57291 0 0 0
149 -38.71540 -9.77641 55.89318 0 0 0
150 -39.45070 -10.05821 55.42807 0 0 0
151 -40.41697 -10.28439 55.48939 0 0 0
152 -1.15144 -0.55415 44.25701 0 0 0
153 -1.58292 0.26590 44.68697 0 0 0
154 -1.76858 1.00122 45.27465 0 0 0
155 -1.11110 1.26315 46.02635 0 0 0
156 -0.78642 1.50104 46.90734 0 0 0
157 -0.02759 1.97841 47.25076 0 0 0
158 0.84383 2.48166 47.22524 0 0 0
159 1.21156 2.96982 48.02799 0 0 0
160 1.76738 3.51258 48.66660 0 0 0
161 2.19890 4.29494 49.35238 0 0 0
162 2.66165 4.80935 50.12763 0 0 0
163 3.12012 5.30769 50.85191 0 0 0
164 3.18413 5.77003 51.66102 0 0 0
165 4.08701 6.13056 52.02848 0 0 0
166 4.31978 6.85132 52.68785 0 0 0
167 4.52321 7.66464 53.34581 0 0 0
168 5.07703 8.35012 53.79738 0 0 0
169 5.77420 8.94527 54.24614 0 0 0
170 5.97672 9.83139 54.50848 0 0 0
171 6.79453 10.34317 54.91858 0 0 0
172 7.71502 11.01707 54.90690 0 0 0
173 7.99392 11.41775 55.74196 0 0 0
174 8.29847 11.76753 56.59801 0 0 0
175 8.92448 12.22173 57.23347 0 0 0
176 9.53501 12.96413 57.64614 0 0 0
177 9.63197 13.52588 58.47997 0 0 0
178 10.15477 14.22317 58.95521 0 0 0
179 10.29541 14.21669 59.94932 0 0 0
180 9.98751 14.55583 60.82227 0 0 0
181 9.89677 15.05993 61.58304 0 0 0
182 10.78008 15.33228 61.85024 0 0 0
183 11.54078 15.85805 61.86821 0 0 0
184 11.41900 16.47200 62.59174 0 0 0
185 11.80097 17.12528 63.19962 0 0 0
186 11.93898 17.26068 64.10318 0 0 0
187 12.29879 17.64434 64.88471 0 0 0
188 13.22411 17.73589 65.25401 0 0 0
189 13.64151 18.01533 66.05240 0 0 0
190 14.22310 18.10898 66.91723 0 0 0
191 14.96867 18.36111 67.37855 0 0 0
192 15.02665 17.87068 68.41154 0 0 0
193 15.62396 18.41507 68.96250 0 0 0
194 15.77286 19.02854 69.71523 0 0 0
195 16.23045 19.73302 70.14547 0 0 0
196 16.47926 19.40730 70.99849 0 0 0
197 17.21884 19.60310 71.61422 0 0 0
198 17.47740 19.98360 72.57231 0 0 0
199 18.03366 20.62662 72.80063 0 0 0
200 17.50817 20.79512 73.61555 0 0 0
201 17.87298 20.74247 74.55582 0 0 0
ITEM: TIMESTEP
2000
ITEM: NUMBER OF ATOMS
201
ITEM: BOX BOUNDS pp pp pp
-1.0000000000000000e+03 1.0000000000000000e+03
-1.0000000000000000e+03 1.0000000000000000e+03
-1.0000000000000000e+03 1.0000000000000000e+03
ITEM: ATOMS id x y z ix iy iz
1 -3.68253 -0.38899 6.60300 0 0 0
2 -3.53906 -1.11736 7.24073 0 0 0
3 -2.96456 -1.01110 8.01384 0 0 0
4 -2.02751 -0.83240 8.26058 0 0 0
5 -2.15904 -0.15853 9.06011 0 0 0
6 -1.55291 -0.89862 9.25816 0 0 0
7 -1.04825 -0.30407 9.82140 0 0 0
8 -0.64814 -0.40705 10.67330 0 0 0
9 -0.41194 -0.61361 11.57030 0 0 0
10 -0.87313 -1.26534 12.15764 0 0 0
11 -1.23562 -1.28251 13.05200 0 0 0
12 -1.22928 -0.40479 13.61589 0 0 0
13 -1.11490 0.00415 14.48313 0 0 0
14 -1.42448 -0.20937 15.43072 0 0 0
15 -1.82411 -0.52620 16.37183 0 0 0
16 -1.64714 -0.12991 17.24825 0 0 0
17 -1.02063 0.27991 17.76041 0 0 0
18 -0.21255 0.36173 18.25886 0 0 0
19 -0.75345 -0.40253 18.69747 0 0 0
20 -1.77446 -0.37527 18.67768 0 0 0
21 -2.05074 -0.43526 19.65662 0 0 0
22 -2.12415 -0.73354 20.66156 0 0 0
23 -2.01848 -0.57032 21.73569 0 0 0
24 -1.57785 -0.14516 22.47524 0 0 0
25 -1.40743 -0.16792 23.36983 0 0 0
26 -2.05163 -0.48967 23.94952 0 0 0
27 -1.96789 -0.39505 24.91607 0 0 0
28 -1.51440 0.01642 25.83577 0 0 0
29 -1.43822 0.41258 26.71528 0 0 0
30 -0.69797 1.02996 26.81146 0 0 0
31 -0.56643 1.20554 27.83777 0 0 0
32 -1.20488 0.59033 28.26649 0 0 0
33 -0.18793 0.42554 28.56814 0 0 0
34 -0.01971 0.43726 29.59600 0 0 0
35 0.07184 0.11492 30.47273 0 0 0
36 -0.05428 -0.25745 31.40825 0 0 0
37 0.36533 0.20330 32.17102 0 0 0
38 0.79714 -0.29077 32.96656 0 0 0
39 0.93285 0.17924 33.72865 0 0 0
40 0.28593 0.55819 34.29469 0 0 0
41 0.29933 0.79287 35.21421 0 0 0
42 -0.29172 0.40180 35.85447 0 0 0
43 0.13432 0.49653 36.78048 0 0 0
44 0.82399 0.45848 37.51301 0 0 0
45 1.25137 0.37583 38.35134 0 0 0
46 0.98815 -0.15615 39.23603 0 0 0
47 0.75094 -0.61513 40.10772 0 0 0
48 0.54835 -0.76474 41.05593 0 0 0
49 0.11972 -1.23533 41.87602 0 0 0
50 -0.10681 -1.54669 42.80145 0 0 0
51 -0.38017 -1.91856 43.64585 0 0 0
52 -0.04817 -2.73653 43.27183 0 0 0
53 0.32085 -3.71469 43.02258 0 0 0
54 1.25629 -4.19606 42.99871 0 0 0
55 2.11463 -4.63265 42.95437 0 0 0
56 2.66861 -5.47423 43.10064 0 0 0
57 2.96139 -6.29918 42.58560 0 0 0
58 3.36923 -6.92278 43.20347 0 0 0
59 2.57537 -7.58123 43.26130 0 0 0
60 3.14475 -8.37003 43.39289 0 0 0
61 3.38631 -9.32299 43.83803 0 0 0
62 4.05188 -9.89664 43.55304 0 0 0
63 4.46416 -10.72082 43.33309 0 0 0
64 5.29678 -10.47085 43.80485 0 0 0
65 6.19129 -10.78862 43.99536 0 0 0
66 6.85979 -11.49714 43.88187 0 0 0
67 7.71977 -12.01809 43.98180 0 0 0
68 8.33506 -12.39837 43.30505 0 0 0
69 8.86271 -12.87173 42.56195 0 0 0
70 9.22746 -13.80860 42.55781 0 0 0
71 9.79530 -14.58028 42.71932 0 0 0
72 10.62540 -15.06200 42.78672 0 0 0
73 10.90866 -16.02228 43.06796 0 0 0
74 11.25043 -16.38625 42.26031 0 0 0
75 11.73012 -17.19904 41.94732 0 0 0
76 12.59318 -17.41057 41.54598 0 0 0
77 12.99854 -18.26378 41.26285 0 0 0
78 13.56503 -19.10438 41.15130 0 0 0
79 13.68506 -20.04657 41.49261 0 0 0
80 13.90032 -20.80771 42.12420 0 0 0
81 14.75317 -20.89162 41.67991 0 0 0
82 15.13403 -21.64579 41.18529 0 0 0
83 15.40952 -22.48376 40.67527 0 0 0
84 15.42111 -23.44323 40.47873 0 0 0
85 15.75010 -24.16474 39.94702 0 0 0
86 16.09797 -24.86857 39.34167 0 0 0
87 17.06246 -25.23163 39.32794 0 0 0
88 17.79124 -25.46095 39.98362 0 0 0
89 18.36233 -26.16852 40.45520 0 0 0
90 19.07329 -26.60894 40.93333 0 0 0
91 19.41465 -27.47900 40.63743 0 0 0
92 20.22303 -28.13068 40.37150 0 0 0
93 20.96181 -28.67122 40.09447 0 0 0
94 21.85456 -29.08846 40.21217 0 0 0
95 21.98000 -30.07500 40.46325 0 0 0
96 22.39734 -29.73999 39.56663 0 0 0
97 22.97483 -29.26294 38.92167 0 0 0
98 23.67789 -29.98577 39.18314 0 0 0
99 24.27582 -30.73977 39.41325 0 0 0
100 24.01711 -30.94768 40.29954 0 0 0
101 24.07858 -30.04727 40.60542 0 0 0
102 -1.31934 -2.09932 43.70307 0 0 0
103 -2.31552 -1.83260 43.69802 0 0 0
104 -3.06026 -2.47324 43.88293 0 0 0
105 -4.05135 -2.54596 43.80822 0 0 0
106 -5.00325 -2.91428 43.81438 0 0 0
107 -5.90431 -2.57276 43.86510 0 0 0
108 -6.38441 -2.65476 44.75771 0 0 0
109 -7.36202 -3.00223 45.00025 0 0 0
110 -8.32896 -3.04109 45.17864 0 0 0
111 -9.33901 -2.93918 45.23129 0 0 0
112 -10.27175 -2.88073 45.39490 0 0 0
113 -11.23608 -3.02440 45.23081 0 0 0
114 -12.09118 -3.21142 45.76791 0 0 0
115 -12.59154 -2.37958 46.00903 0 0 0
116 -13.54233 -2.28369 45.97142 0 0 0
117 -14.32065 -1.99278 46.49144 0 0 0
118 -15.32839 -2.03664 46.23269 0 0 0
119 -16.21679 -2.17223 45.79404 0 0 0
120 -16.17689 -2.92878 46.40333 0 0 0
121 -17.10200 -2.93433 46.67058 0 0 0
122 -18.07325 -3.11628 47.09960 0 0 0
123 -19.03873 -3.47380 47.15023 0 0 0
124 -19.95711 -3.58815 46.99442 0 0 0
125 -20.58428 -4.21694 47.25443 0 0 0
126 -21.42369 -4.82251 47.09363 0 0 0
127 -22.30099 -5.25046 46.94746 0 0 0
128 -22.91788 -5.40189 47.63348 0 0 0
129 -23.04850 -5.79928 48.54904 0 0 0
130 -23.79313 -6.32863 48.96575 0 0 0
131 -24.59938 -6.96207 49.00075 0 0 0
132 -25.60994 -7.07103 49.40972 0 0 0
133 -26.21293 -6.45926 49.94540 0 0 0
134 -27.10784 -6.68547 49.52718 0 0 0
135 -27.55621 -5.84280 49.75850 0 0 0
136 -28.31007 -5.45084 49.39887 0 0 0
137 -28.95882 -6.06636 49.62667 0 0 0
138 -29.43754 -6.85376 50.01553 0 0 0
139 -30.33985 -7.12031 50.27353 0 0 0
140 -31.01851 -7.13595 51.02715 0 0 0
141 -31.35261 -7.33154 51.90419 0 0 0
142 -32.29981 -7.53729 51.91993 0 0 0
143 -32.79170 -7.16431 52.59689 0 0 0
144 -33.57458 -6.85773 53.11861 0 0 0
145 -34.43774 -7.32336 53.45877 0 0 0
146 -34.89705 -8.19121 53.59127 0 0 0
147 -35.74396 -8.52806 53.91212 0 0 0
148 -36.03496 -9.16156 54.51475 0 0 0
149 -35.44994 -9.90412 54.21578 0 0 0
150 -34.65936 -10.51651 54.17071 0 0 0
151 -34.81253 -10.62194 53.21285 0 0 0
152 0.01104 -1.66079 44.43463 0 0 0
153 0.67553 -1.35307 45.04717 0 0 0
154 1.34234 -0.77039 45.43501 0 0 0
155 2.15753 -0.28843 45.77655 0 0 0
156 2.52504 0.56278 45.99751 0 0 0
157 2.35182 1.23725 46.70491 0 0 0
158 2.49689 1.44914 47.69680 0 0 0
159 2.29998 2.45500 47.87881 0 0 0
160 2.89348 3.12766 48.38089 0 0 0
161 3.34328 3.99228 48.54783 0 0 0
162 3.71181 4.70937 49.15303 0 0 0
163 3.58069 5.56234 49.54791 0 0 0
164 3.43596 6.18645 50.29190 0 0 0
165 4.14615 6.80968 50.80961 0 0 0
166 4.11079 6.98773 51.79786 0 0 0
167 4.62472 7.43361 52.57119 0 0 0
168 5.26470 7.81277 53.18052 0 0 0
169 5.40844 8.24643 54.04958 0 0 0
170 5.82445 8.70947 54.78483 0 0 0
171 6.51832 8.98706 55.42901 0 0 0
172 6.93956 9.69338 55.79572 0 0 0
173 6.46780 10.39051 56.22429 0 0 0
174 7.02953 11.23358 56.02350 0 0 0
175 7.78901 11.81849 56.33201 0 0 0
176 8.00151 12.53598 57.01303 0 0 0
177 7.77339 13.06715 57.76224 0 0 0
178 7.82951 13.99387 57.75761 0 0 0
179 8.42093 14.54142 58.49628 0 0 0
180 8.90508 14.84000 59.33992 0 0 0
181 9.19687 15.40202 60.04362 0 0 0
182 10.04214 15.28309 60.60851 0 0 0
183 10.33401 14.88834 61.44320 0 0 0
184 10.96318 15.44671 62.00572 0 0 0
185 11.42304 16.20460 62.42209 0 0 0
186 12.02889 15.86138 63.11474 0 0 0
187 12.66866 15.49482 63.75937 0 0 0
188 13.25829 15.99661 64.27734 0 0 0
189 14.16178 16.34574 64.23442 0 0 0
190 14.43414 17.21027 64.61730 0 0 0
191 15.29405 17.41848 65.10413 0 0 0
192 15.27977 16.93205 65.91236 0 0 0
193 15.04866 16.35794 66.62687 0 0 0
194 14.82548 16.38905 67.58221 0 0 0
195 15.40318 17.17856 67.59629 0 0 0
196 15.87533 17.80247 68.15003 0 0 0
197 16.30449 18.43817 68.73954 0 0 0
198 17.28016 18.55446 69.09403 0 0 0
199 17.71224 18.86044 69.95020 0 0 0
200 17.75177 19.75848 70.31956 0 0 0
201 17.18310 20.27711 70.94324 0 0 0
ITEM: TIMESTEP
3000
ITEM: NUMBER OF ATOMS
201
ITEM: BOX BOUNDS pp pp pp
-1.0000000000000000e+03 1.0000000000000000e+03
-1.0000000000000000e+03 1.0000000000000000e+03
-1.0000000000000000e+03 1.0000000000000000e+03
ITEM: ATOMS id x y z ix iy iz
1 -1.49664 -1.60213 9.55814 0 0 0
2 -1.44222 -1.73048 8.64933 0 0 0
3 -0.46996 -1.67391 9.09446 0 0 0
4 0.23659 -1.44628 9.64784 0 0 0
5 -0.45814 -1.38800 10.38892 0 0 0
6 0.29632 -0.88482 10.71499 0 0 0
7 0.74162 -1.49598 11.29617 0 0 0
8 0.13229 -1.05500 11.95068 0 0 0
9 0.06256 -1.17539 12.94740 0 0 0
10 0.84075 -1.15706 13.54242 0 0 0
11 0.89922 -0.28987 14.06537 0 0 0
12 1.15330 -0.65416 14.95090 0 0 0
13 0.28472 -1.19061 14.90550 0 0 0
14 -0.43064 -1.38445 15.61180 0 0 0
15 0.06326 -1.96558 16.28267 0 0 0
16 0.14634 -1.44915 17.10040 0 0 0
17 -0.24119 -0.83479 17.72416 0 0 0
18 0.15646 -0.12450 18.33312 0 0 0
19 -0.11269 0.20971 19.32180 0 0 0
20 0.21345 0.25572 20.28023 0 0 0
21 0.10171 0.71006 21.13640 0 0 0
22 0.31113 0.56396 22.05146 0 0 0
23 0.17444 -0.07399 22.82323 0 0 0
24 -0.24720 -0.07749 23.74790 0 0 0
25 0.15830 0.74850 24.10270 0 0 0
26 0.18915 1.44694 24.68477 0 0 0
27 1.00437 1.27673 25.23857 0 0 0
28 1.27900 0.67935 25.89408 0 0 0
29 0.53464 0.54052 26.41263 0 0 0
30 0.42087 -0.10445 27.12955 0 0 0
31 0.89278 -0.39874 27.90586 0 0 0
32 0.56063 -0.20992 28.82456 0 0 0
33 0.07117 -0.38584 29.72165 0 0 0
34 -0.30402 -0.91995 30.47378 0 0 0
35 0.31615 -0.87050 31.21107 0 0 0
36 0.00804 -1.73754 31.65206 0 0 0
37 -0.16024 -1.54777 32.60459 0 0 0
38 -0.07929 -1.20685 33.55998 0 0 0
39 0.50317 -0.75023 34.14988 0 0 0
40 0.80913 -0.07091 34.73587 0 0 0
41 0.42397 -0.26072 35.61863 0 0 0
42 0.26038 -0.67155 36.45651 0 0 0
43 -0.25794 -0.67117 37.38140 0 0 0
44 -0.27196 -0.90041 38.34610 0 0 0
45 0.05847 -1.21667 39.14032 0 0 0
46 -0.20609 -1.09867 40.07987 0 0 0
47 0.11167 -0.37218 40.65701 0 0 0
48 0.36860 -0.45950 41.68115 0 0 0
49 0.48984 -0.14471 42.58263 0 0 0
50 0.37961 -0.80230 43.30748 0 0 0
51 -0.11340 -1.34773 43.94559 0 0 0
52 0.69806 -1.91726 44.22345 0 0 0
53 1.50651 -2.35310 43.99872 0 0 0
54 2.35961 -2.68552 43.65474 0 0 0
55 3.13571 -3.13482 43.10600 0 0 0
56 3.75174 -3.86855 42.76572 0 0 0
57 3.76948 -4.76628 43.29963 0 0 0
58 4.25130 -5.58010 43.33012 0 0 0
59 4.90967 -6.35849 43.30904 0 0 0
60 4.89028 -7.35068 43.01969 0 0 0
61 5.09935 -8.31163 42.71651 0 0 0
62 5.94871 -8.05932 43.15356 0 0 0
63 6.90251 -8.16546 43.37604 0 0 0
64 7.23527 -8.92555 43.86565 0 0 0
65 8.09033 -9.43774 43.81197 0 0 0
66 9.05737 -9.69874 43.87502 0 0 0
67 8.96918 -10.55142 43.29275 0 0 0
68 9.55515 -10.84383 42.45741 0 0 0
69 9.82900 -11.50069 41.84210 0 0 0
70 10.62261 -12.10855 41.77417 0 0 0
71 10.99634 -12.96323 42.02613 0 0 0
72 11.53312 -13.79209 41.69830 0 0 0
73 11.47712 -14.74049 41.99385 0 0 0
74 11.61869 -15.65997 41.70524 0 0 0
75 12.25837 -16.17380 41.23500 0 0 0
76 12.62419 -16.89718 40.62371 0 0 0
77 12.96802 -17.77722 40.91468 0 0 0
78 13.57080 -18.56378 41.13021 0 0 0
79 13.40556 -19.42974 40.64369 0 0 0
80 14.26542 -19.34606 40.18515 0 0 0
81 14.28785 -20.18160 40.61137 0 0 0
82 14.07568 -20.97300 41.00200 0 0 0
83 14.59611 -21.79714 40.61203 0 0 0
84 15.23320 -22.49023 40.62602 0 0 0
85 15.10867 -23.47699 40.74683 0 0 0
86 15.38279 -24.30641 41.15274 0 0 0
87 16.19416 -24.85385 40.84966 0 0 0
88 17.16229 -24.78691 41.25861 0 0 0
89 17.67860 -24.93551 42.10520 0 0 0
90 17.88342 -25.74262 41.63964 0 0 0
91 18.79894 -26.02367 41.71382 0 0 0
92 19.75007 -26.09215 41.33785 0 0 0
93 20.34050 -26.77099 41.12425 0 0 0
94 20.69909 -27.26709 41.91022 0 0 0
95 21.48859 -26.93882 42.38709 0 0 0
96 21.85869 -27.83262 41.90207 0 0 0
97 22.74905 -28.01381 42.18780 0 0 0
98 23.39069 -28.44059 41.59897 0 0 0
99 24.19103 -28.75397 40.95559 0 0 0
100 23.96093 -28.99545 39.97220 0 0 0
101 22.99046 -29.01967 40.03940 0 0 0
102 -0.84261 -1.89976 44.24744 0 0 0
103 -1.67282 -1.50658 43.85433 0 0 0
104 -2.60932 -1.61200 43.95485 0 0 0
105 -3.53697 -1.80428 44.02069 0 0 0
106 -4.29170 -1.53642 44.57773 0 0 0
107 -5.28760 -1.60733 44.53415 0 0 0
108 -5.90720 -2.37737 44.44587 0 0 0
109 -6.65353 -2.78458 44.05893 0 0 0
110 -7.51319 -2.98393 44.50798 0 0 0
111 -8.16406 -3.58648 44.98512 0 0 0
112 -9.11209 -3.65141 45.47428 0 0 0
113 -9.95509 -4.08796 45.51029 0 0 0
114 -10.72621 -4.59400 45.86937 0 0 0
115 -11.68745 -4.81715 45.72274 0 0 0
116 -12.61938 -4.99027 45.79497 0 0 0
117 -13.52756 -4.97584 46.24237 0 0 0
118 -14.39419 -4.60563 46.46343 0 0 0
119 -14.89578 -3.74266 46.66787 0 0 0
120 -15.94363 -3.91274 46.56267 0 0 0
121 -16.80174 -3.48347 46.30578 0 0 0
122 -17.75996 -3.27155 46.48086 0 0 0
123 -18.67988 -3.18398 46.49286 0 0 0
124 -19.33910 -3.20952 47.17318 0 0 0
125 -20.29560 -3.02516 47.08707 0 0 0
126 -21.22352 -3.16885 47.46277 0 0 0
127 -21.57431 -3.68412 48.24057 0 0 0
128 -22.39457 -3.94510 47.62150 0 0 0
129 -23.00149 -3.16859 47.93244 0 0 0
130 -23.62524 -3.92144 48.12557 0 0 0
131 -24.31626 -4.60939 47.99317 0 0 0
132 -24.82415 -5.15850 47.24822 0 0 0
133 -24.92759 -5.97547 46.71607 0 0 0
134 -25.27778 -6.33761 47.52915 0 0 0
135 -26.03721 -6.84218 47.85748 0 0 0
136 -27.03797 -6.70633 48.03720 0 0 0
137 -27.39175 -7.00785 48.93944 0 0 0
138 -28.10790 -6.50255 49.32242 0 0 0
139 -28.46707 -5.64161 49.65511 0 0 0
140 -29.25619 -5.71618 50.23383 0 0 0
141 -29.65412 -5.48710 51.08562 0 0 0
142 -30.08704 -5.48077 51.93404 0 0 0
143 -29.77935 -5.92476 52.72914 0 0 0
144 -30.66440 -6.28118 52.71324 0 0 0
145 -31.05109 -7.12427 52.93996 0 0 0
146 -31.89387 -7.29833 52.45001 0 0 0
147 -32.65962 -6.80469 52.49466 0 0 0
148 -33.34807 -7.19135 53.05665 0 0 0
149 -32.87311 -7.98259 53.25724 0 0 0
150 -32.12756 -7.81751 53.82451 0 0 0
151 -32.18962 -8.72285 54.13472 0 0 0
152 -0.74779 -0.59898 43.96661 0 0 0
153 -0.18425 0.20580 44.18980 0 0 0
154 0.07733 0.65968 45.01426 0 0 0
155 0.24209 1.54229 45.53441 0 0 0
156 0.59835 2.13862 46.23030 0 0 0
157 0.50988 2.32506 47.23102 0 0 0
158 0.51431 3.19518 47.80717 0 0 0
159 0.58731 3.81291 48.57190 0 0 0
160 1.09907 3.38505 49.30094 0 0 0
161 1.62231 4.13345 49.50602 0 0 0
162 1.93777 4.93212 50.07033 0 0 0
163 1.68504 5.89018 50.06595 0 0 0
164 1.17209 6.49369 50.72779 0 0 0
165 1.98626 7.05228 50.54881 0 0 0
166 2.17608 7.71206 51.29237 0 0 0
167 2.46083 8.10495 52.14638 0 0 0
168 2.64798 8.74091 52.83082 0 0 0
169 3.44909 9.25082 53.10953 0 0 0
170 4.29062 9.64071 53.32482 0 0 0
171 5.00242 10.43726 53.64871 0 0 0
172 5.63449 11.19991 53.84723 0 0 0
173 6.43585 10.86648 54.19548 0 0 0
174 7.15085 11.27866 54.72064 0 0 0
175 7.60236 11.54186 55.56503 0 0 0
176 7.97308 11.71973 56.41988 0 0 0
177 8.70643 11.94164 57.00068 0 0 0
178 9.40409 12.70016 57.19663 0 0 0
179 9.81483 13.41431 57.77158 0 0 0
180 10.36511 13.81569 58.56775 0 0 0
181 10.69700 14.44746 59.22348 0 0 0
182 11.21258 14.73257 59.98195 0 0 0
183 11.48420 14.24000 60.75217 0 0 0
184 11.04794 14.56658 61.54090 0 0 0
185 11.63236 14.39459 62.30179 0 0 0
186 11.82323 14.31961 63.28540 0 0 0
187 12.46668 15.02443 63.08648 0 0 0
188 12.83885 15.88025 63.27194 0 0 0
189 13.66371 16.36287 63.61344 0 0 0
190 13.92086 15.76763 64.32346 0 0 0
191 14.13980 15.39225 65.15909 0 0 0
192 13.55733 15.68143 65.89840 0 0 0
193 13.68296 15.76060 66.88091 0 0 0
194 14.57427 15.46932 67.10583 0 0 0
195 14.47886 16.30695 67.57739 0 0 0
196 15.08434 16.85818 68.05156 0 0 0
197 15.99930 16.87267 68.31009 0 0 0