bb160nuc3bl40bn4d30tot400V2

401 atoms
400 bonds
408 angles

1 atom types
1 bond types
1 angle types

-1000 1000 xlo xhi
-1000 1000 ylo yhi
-1000 1000 zlo zhi

Masses

1 1

Atoms

1	1	1	0.0	0.0	0.0	0	0	0
2	1	1	0.0	0.0	1.0	0	0	0
3	1	1	0.0	-0.49999999999999994	1.8660254037844388	0	0	0
4	1	1	0.0	0.0	2.7320508075688776	0	0	0
5	1	1	0.0	-0.49999999999999994	3.5980762113533165	0	0	0
6	1	1	0.0	0.0	4.464101615137755	0	0	0
7	1	1	0.0	-0.49999999999999994	5.330127018922194	0	0	0
8	1	1	0.0	0.0	6.196152422706632	0	0	0
9	1	1	0.0	-0.49999999999999994	7.06217782649107	0	0	0
10	1	1	0.0	0.0	7.928203230275509	0	0	0
11	1	1	0.0	-0.49999999999999994	8.794228634059948	0	0	0
12	1	1	0.0	0.0	9.660254037844387	0	0	0
13	1	1	0.0	-0.49999999999999994	10.526279441628827	0	0	0
14	1	1	0.0	0.0	11.392304845413266	0	0	0
15	1	1	0.0	-0.49999999999999994	12.258330249197705	0	0	0
16	1	1	0.0	0.0	13.124355652982144	0	0	0
17	1	1	0.0	-0.49999999999999994	13.990381056766584	0	0	0
18	1	1	0.0	0.0	14.856406460551023	0	0	0
19	1	1	0.0	-0.49999999999999994	15.722431864335462	0	0	0
20	1	1	0.0	0.0	16.5884572681199	0	0	0
21	1	1	0.0	-0.49999999999999994	17.454482671904337	0	0	0
22	1	1	0.0	0.0	18.320508075688775	0	0	0
23	1	1	0.0	-0.49999999999999994	19.186533479473212	0	0	0
24	1	1	0.0	0.0	20.05255888325765	0	0	0
25	1	1	0.0	-0.49999999999999994	20.918584287042087	0	0	0
26	1	1	0.0	0.0	21.784609690826525	0	0	0
27	1	1	0.0	-0.49999999999999994	22.650635094610962	0	0	0
28	1	1	0.0	0.0	23.5166604983954	0	0	0
29	1	1	0.0	-0.49999999999999994	24.382685902179837	0	0	0
30	1	1	0.0	0.0	25.248711305964274	0	0	0
31	1	1	0.0	-0.49999999999999994	26.114736709748712	0	0	0
32	1	1	0.0	0.0	26.98076211353315	0	0	0
33	1	1	0.0	-0.49999999999999994	27.846787517317587	0	0	0
34	1	1	0.0	0.0	28.712812921102024	0	0	0
35	1	1	0.0	-0.49999999999999994	29.578838324886462	0	0	0
36	1	1	0.0	0.0	30.4448637286709	0	0	0
37	1	1	0.0	-0.49999999999999994	31.310889132455337	0	0	0
38	1	1	0.0	0.0	32.17691453623978	0	0	0
39	1	1	0.0	-0.49999999999999994	33.04293994002422	0	0	0
40	1	1	0.0	0.0	33.90896534380866	0	0	0
41	1	1	0.0	-0.49999999999999994	34.7749907475931	0	0	0
42	1	1	-0.12681093558003084	0.1420273310229579	35.53111236005822	0	0	0
43	1	1	-0.2536218711600614	0.3199785033801984	36.50694655031495	0	0	0
44	1	1	-0.380432806740092	1.254051288202561	36.84075340954872	0	0	0
45	1	1	-0.5072437423201226	1.4320024605598014	37.816587599805445	0	0	0
46	1	1	-0.6340546779001532	2.366075245382164	38.15039445903921	0	0	0
47	1	1	-0.7608656134801839	2.5440264177394045	39.12622864929594	0	0	0
48	1	1	-0.8876765490602145	3.4780992025617667	39.46003550852971	0	0	0
49	1	1	-1.0144874846402452	3.6560503749190074	40.43586969878643	0	0	0
50	1	1	-1.1412984202202758	4.59012315974137	40.7696765580202	0	0	0
51	1	1	-1.2681093558003065	4.76807433209861	41.74551074827693	0	0	0
52	1	1	-1.3949202913803371	5.7021471169209725	42.079317607510696	0	0	0
53	1	1	-1.5217312269603678	5.880098289278213	43.05515179776742	0	0	0
54	1	1	-1.6485421625403984	6.814171074100575	43.38895865700119	0	0	0
55	1	1	-1.775353098120429	6.992122246457816	44.36479284725792	0	0	0
56	1	1	-1.9021640337004597	7.926195031280178	44.698599706491684	0	0	0
57	1	1	-2.0289749692804904	8.104146203637418	45.67443389674841	0	0	0
58	1	1	-2.155785904860521	9.03821898845978	46.00824075598218	0	0	0
59	1	1	-2.2825968404405517	9.21617016081702	46.984074946238906	0	0	0
60	1	1	-2.4094077760205823	10.150242945639382	47.31788180547267	0	0	0
61	1	1	-2.536218711600613	10.328194117996622	48.2937159957294	0	0	0
62	1	1	-2.6630296471806436	11.262266902818984	48.62752285496317	0	0	0
63	1	1	-2.7898405827606743	11.440218075176224	49.603357045219894	0	0	0
64	1	1	-2.916651518340705	12.374290859998586	49.93716390445366	0	0	0
65	1	1	-3.0434624539207356	12.552242032355826	50.91299809471039	0	0	0
66	1	1	-3.170273389500766	13.486314817178188	51.24680495394416	0	0	0
67	1	1	-3.297084325080797	13.664265989535428	52.22263914420088	0	0	0
68	1	1	-3.4238952606608275	14.59833877435779	52.55644600343465	0	0	0
69	1	1	-3.550706196240858	14.77628994671503	53.53228019369138	0	0	0
70	1	1	-3.677517131820889	15.710362731537392	53.866087052925145	0	0	0
71	1	1	-3.8043280674009194	15.888313903894632	54.84192124318187	0	0	0
72	1	1	-3.93113900298095	16.822386688716996	55.17572810241564	0	0	0
73	1	1	-4.057949938560981	17.000337861074236	56.15156229267237	0	0	0
74	1	1	-4.184760874141011	17.934410645896598	56.485369151906134	0	0	0
75	1	1	-4.311571809721041	18.112361818253838	57.46120334216286	0	0	0
76	1	1	-4.438382745301071	19.0464346030762	57.79501020139663	0	0	0
77	1	1	-4.565193680881102	19.22438577543344	58.770844391653355	0	0	0
78	1	1	-4.692004616461132	20.158458560255802	59.10465125088712	0	0	0
79	1	1	-4.818815552041162	20.336409732613042	60.08048544114385	0	0	0
80	1	1	-4.945626487621192	21.270482517435404	60.41429230037762	0	0	0
81	1	1	-5.072437423201222	21.448433689792644	61.390126490634344	0	0	0
82	1	1	0.8723362284298566	-0.9762606082517871	34.88546851728644	0	0	0
83	1	1	1.7446724568597114	-1.4439532786663323	34.743014768268424	0	0	0
84	1	1	2.617008685289566	-1.801168179387538	35.0768216275022	0	0	0
85	1	1	3.489344913719421	-2.2688608498020835	34.93436787848418	0	0	0
86	1	1	4.361681142149276	-2.6260757505232895	35.268174737717956	0	0	0
87	1	1	5.2340173705791315	-3.0937684209378347	35.12572098869994	0	0	0
88	1	1	6.106353599008987	-3.4509833216590406	35.459527847933714	0	0	0
89	1	1	6.978689827438842	-3.918675992073586	35.3170740989157	0	0	0
90	1	1	7.851026055868697	-4.275890892794791	35.65088095814947	0	0	0
91	1	1	8.723362284298553	-4.743583563209337	35.508427209131455	0	0	0
92	1	1	9.595698512728408	-5.100798463930543	35.84223406836523	0	0	0
93	1	1	10.468034741158263	-5.568491134345089	35.69978031934721	0	0	0
94	1	1	11.340370969588118	-5.925706035066295	36.03358717858099	0	0	0
95	1	1	12.212707198017974	-6.39339870548084	35.89113342956297	0	0	0
96	1	1	13.085043426447829	-6.750613606202046	36.224940288796745	0	0	0
97	1	1	13.957379654877684	-7.218306276616592	36.08248653977873	0	0	0
98	1	1	14.82971588330754	-7.575521177337798	36.4162933990125	0	0	0
99	1	1	15.702052111737395	-8.043213847752343	36.273839649994486	0	0	0
100	1	1	16.57438834016725	-8.400428748473548	36.60764650922826	0	0	0
101	1	1	17.446724568597105	-8.868121418888093	36.46519276021024	0	0	0
102	1	1	18.31906079702696	-9.225336319609298	36.79899961944402	0	0	0
103	1	1	19.191397025456816	-9.693028990023842	36.656545870426	0	0	0
104	1	1	20.06373325388667	-10.050243890745048	36.990352729659776	0	0	0
105	1	1	20.936069482316526	-10.517936561159592	36.84789898064176	0	0	0
106	1	1	21.80840571074638	-10.875151461880797	37.181705839875534	0	0	0
107	1	1	22.680741939176237	-11.342844132295342	37.03925209085752	0	0	0
108	1	1	23.553078167606092	-11.700059033016547	37.37305895009129	0	0	0
109	1	1	24.425414396035947	-12.167751703431092	37.230605201073274	0	0	0
110	1	1	25.297750624465802	-12.524966604152297	37.56441206030705	0	0	0
111	1	1	26.170086852895658	-12.992659274566842	37.42195831128903	0	0	0
112	1	1	27.042423081325513	-13.349874175288047	37.75576517052281	0	0	0
113	1	1	27.914759309755368	-13.817566845702592	37.61331142150479	0	0	0
114	1	1	28.787095538185223	-14.174781746423797	37.947118280738565	0	0	0
115	1	1	29.65943176661508	-14.642474416838342	37.80466453172055	0	0	0
116	1	1	30.531767995044934	-14.999689317559547	38.13847139095432	0	0	0
117	1	1	31.40410422347479	-15.467381987974091	37.996017641936305	0	0	0
118	1	1	32.27644045190464	-15.824596888695297	38.32982450117008	0	0	0
119	1	1	33.14877668033449	-16.292289559109843	38.18737075215206	0	0	0
120	1	1	34.021112908764344	-16.64950445983105	38.52117761138584	0	0	0
121	1	1	34.893449137194196	-17.117197130245597	38.37872386236782	0	0	0
122	1	1	-0.745525292849832	-1.1664770116218248	34.77564702559647	0	0	0
123	1	1	-1.4910505856996628	-1.7439911737263438	34.442976873208416	0	0	0
124	1	1	-2.2365758785494934	-2.3208490578274965	34.77678373244219	0	0	0
125	1	1	-2.982101171399324	-2.8983632199320155	34.444113580054136	0	0	0
126	1	1	-3.727626464249155	-3.475221104033168	34.77792043928791	0	0	0
127	1	1	-4.473151757098986	-4.052735266137687	34.44525028689986	0	0	0
128	1	1	-5.218677049948816	-4.62959315023884	34.77905714613363	0	0	0
129	1	1	-5.964202342798647	-5.207107312343359	34.44638699374558	0	0	0
130	1	1	-6.709727635648477	-5.783965196444512	34.78019385297935	0	0	0
131	1	1	-7.455252928498307	-6.361479358549031	34.4475237005913	0	0	0
132	1	1	-8.200778221348138	-6.938337242650183	34.78133055982507	0	0	0
133	1	1	-8.946303514197968	-7.515851404754702	34.44866040743702	0	0	0
134	1	1	-9.691828807047798	-8.092709288855856	34.78246726667079	0	0	0
135	1	1	-10.437354099897629	-8.670223450960375	34.44979711428274	0	0	0
136	1	1	-11.18287939274746	-9.247081335061528	34.78360397351651	0	0	0
137	1	1	-11.92840468559729	-9.824595497166047	34.45093382112846	0	0	0
138	1	1	-12.67392997844712	-10.401453381267201	34.78474068036223	0	0	0
139	1	1	-13.41945527129695	-10.97896754337172	34.45207052797418	0	0	0
140	1	1	-14.16498056414678	-11.555825427472874	34.785877387207954	0	0	0
141	1	1	-14.910505856996611	-12.133339589577393	34.4532072348199	0	0	0
142	1	1	-15.656031149846442	-12.710197473678546	34.787014094053674	0	0	0
143	1	1	-16.401556442696272	-13.287711635783065	34.45434394166562	0	0	0
144	1	1	-17.147081735546102	-13.864569519884219	34.788150800899395	0	0	0
145	1	1	-17.892607028395933	-14.442083681988738	34.45548064851134	0	0	0
146	1	1	-18.638132321245763	-15.018941566089891	34.789287507745115	0	0	0
147	1	1	-19.383657614095593	-15.59645572819441	34.45661735535706	0	0	0
148	1	1	-20.129182906945424	-16.173313612295562	34.790424214590836	0	0	0
149	1	1	-20.874708199795254	-16.750827774400083	34.45775406220278	0	0	0
150	1	1	-21.620233492645085	-17.327685658501235	34.791560921436556	0	0	0
151	1	1	-22.365758785494915	-17.905199820605755	34.4588907690485	0	0	0
152	1	1	-23.111284078344745	-18.482057704706907	34.792697628282276	0	0	0
153	1	1	-23.856809371194576	-19.059571866811428	34.46002747589422	0	0	0
154	1	1	-24.602334664044406	-19.63642975091258	34.793834335128	0	0	0
155	1	1	-25.347859956894236	-20.2139439130171	34.46116418273994	0	0	0
156	1	1	-26.093385249744067	-20.790801797118252	34.79497104197372	0	0	0
157	1	1	-26.838910542593897	-21.368315959222773	34.46230088958566	0	0	0
158	1	1	-27.584435835443728	-21.945173843323925	34.79610774881944	0	0	0
159	1	1	-28.329961128293558	-22.522688005428446	34.46343759643138	0	0	0
160	1	1	-29.07548642114339	-23.099545889529598	34.79724445566516	0	0	0
161	1	1	-29.82101171399322	-23.67706005163412	34.464574303277104	0	0	0
162	1	1	-29.537500850820912	-24.635692430218015	34.48998204213511	0	0	0
163	1	1	-29.253989987648605	-25.47859629239097	34.03266960014692	0	0	0
164	1	1	-28.9704791244763	-26.296092415705925	34.53398953674262	0	0	0
165	1	1	-28.686968261303992	-27.13899627787888	34.07667709475442	0	0	0
166	1	1	-28.403457398131685	-27.956492401193834	34.57799703135012	0	0	0
167	1	1	-28.11994653495938	-28.79939626336679	34.12068458936193	0	0	0
168	1	1	-27.836435671787072	-29.616892386681744	34.62200452595763	0	0	0
169	1	1	-27.552924808614765	-30.4597962488547	34.164692083969435	0	0	0
170	1	1	-27.26941394544246	-31.277292372169654	34.666012020565134	0	0	0
171	1	1	-26.985903082270152	-32.120196234342615	34.20869957857694	0	0	0
172	1	1	-26.702392219097845	-32.93769235765757	34.71001951517264	0	0	0
173	1	1	-26.41888135592554	-33.78059621983053	34.252707073184446	0	0	0
174	1	1	-26.135370492753232	-34.59809234314548	34.754027009780145	0	0	0
175	1	1	-25.851859629580925	-35.44099620531844	34.29671456779195	0	0	0
176	1	1	-25.56834876640862	-36.258492328633395	34.79803450438765	0	0	0
177	1	1	-25.284837903236312	-37.101396190806355	34.34072206239946	0	0	0
178	1	1	-25.001327040064005	-37.91889231412131	34.84204199899516	0	0	0
179	1	1	-24.7178161768917	-38.76179617629427	34.38472955700696	0	0	0
180	1	1	-24.434305313719392	-39.57929229960922	34.88604949360266	0	0	0
181	1	1	-24.150794450547085	-40.42219616178218	34.42873705161447	0	0	0
182	1	1	-23.86728358737478	-41.239692285097135	34.93005698821017	0	0	0
183	1	1	-23.583772724202472	-42.082596147270095	34.472744546221975	0	0	0
184	1	1	-23.300261861030165	-42.90009227058505	34.974064482817674	0	0	0
185	1	1	-23.01675099785786	-43.74299613275801	34.51675204082948	0	0	0
186	1	1	-22.733240134685552	-44.56049225607296	35.01807197742518	0	0	0
187	1	1	-22.449729271513245	-45.40339611824592	34.560759535436986	0	0	0
188	1	1	-22.16621840834094	-46.220892241560875	35.062079472032686	0	0	0
189	1	1	-21.882707545168632	-47.063796103733836	34.60476703004449	0	0	0
190	1	1	-21.599196681996325	-47.88129222704879	35.10608696664019	0	0	0
191	1	1	-21.31568581882402	-48.72419608922175	34.648774524652	0	0	0
192	1	1	-21.032174955651712	-49.5416922125367	35.1500944612477	0	0	0
193	1	1	-20.748664092479405	-50.38459607470966	34.692782019259504	0	0	0
194	1	1	-20.4651532293071	-51.202092198024616	35.1941019558552	0	0	0
195	1	1	-20.181642366134792	-52.044996060197576	34.73678951386701	0	0	0
196	1	1	-19.898131502962485	-52.86249218351253	35.23810945046271	0	0	0
197	1	1	-19.61462063979018	-53.70539604568549	34.780797008474515	0	0	0
198	1	1	-19.331109776617872	-54.52289216900044	35.282116945070214	0	0	0
199	1	1	-19.047598913445565	-55.3657960311734	34.82480450308202	0	0	0
200	1	1	-18.76408805027326	-56.183292154488356	35.32612443967772	0	0	0
201	1	1	-18.480577187100952	-57.026196016661316	34.86881199768953	0	0	0
202	1	1	-30.047169096521703	-23.421635788064265	33.52456830121772	0	0	0
203	1	1	-30.273326479050187	-22.730428886040148	32.83821135550937	0	0	0
204	1	1	-30.49948386157867	-22.979227986075415	31.896430146231175	0	0	0
205	1	1	-30.725641244107155	-22.288021084051298	31.21007320052283	0	0	0
206	1	1	-30.95179862663564	-22.536820184086565	30.26829199124463	0	0	0
207	1	1	-31.177956009164124	-21.84561328206245	29.581935045536287	0	0	0
208	1	1	-31.404113391692608	-22.094412382097715	28.640153836258087	0	0	0
209	1	1	-31.630270774221092	-21.4032054800736	27.953796890549743	0	0	0
210	1	1	-31.856428156749576	-21.652004580108866	27.012015681271542	0	0	0
211	1	1	-32.082585539278064	-20.96079767808475	26.3256587355632	0	0	0
212	1	1	-32.30874292180655	-21.209596778120016	25.383877526284998	0	0	0
213	1	1	-32.53490030433503	-20.5183898760959	24.697520580576654	0	0	0
214	1	1	-32.761057686863516	-20.767188976131166	23.755739371298453	0	0	0
215	1	1	-32.987215069392	-20.07598207410705	23.06938242559011	0	0	0
216	1	1	-33.213372451920485	-20.324781174142316	22.12760121631191	0	0	0
217	1	1	-33.43952983444897	-19.6335742721182	21.441244270603566	0	0	0
218	1	1	-33.66568721697745	-19.882373372153467	20.499463061325365	0	0	0
219	1	1	-33.89184459950594	-19.19116647012935	19.81310611561702	0	0	0
220	1	1	-34.11800198203442	-19.439965570164617	18.87132490633882	0	0	0
221	1	1	-34.344159364562906	-18.7487586681405	18.184967960630477	0	0	0
222	1	1	-34.57031674709139	-18.997557768175767	17.243186751352276	0	0	0
223	1	1	-34.796474129619874	-18.30635086615165	16.556829805643932	0	0	0
224	1	1	-35.02263151214836	-18.555149966186917	15.615048596365734	0	0	0
225	1	1	-35.24878889467684	-17.8639430641628	14.928691650657388	0	0	0
226	1	1	-35.474946277205326	-18.112742164198067	13.98691044137919	0	0	0
227	1	1	-35.70110365973381	-17.42153526217395	13.300553495670844	0	0	0
228	1	1	-35.927261042262295	-17.670334362209218	12.358772286392645	0	0	0
229	1	1	-36.15341842479078	-16.9791274601851	11.6724153406843	0	0	0
230	1	1	-36.37957580731926	-17.227926560220368	10.7306341314061	0	0	0
231	1	1	-36.60573318984775	-16.53671965819625	10.044277185697755	0	0	0
232	1	1	-36.83189057237623	-16.785518758231518	9.102495976419556	0	0	0
233	1	1	-37.058047954904715	-16.0943118562074	8.41613903071121	0	0	0
234	1	1	-37.2842053374332	-16.34311095624267	7.474357821433012	0	0	0
235	1	1	-37.510362719961684	-15.651904054218551	6.788000875724666	0	0	0
236	1	1	-37.73652010249017	-15.900703154253817	5.846219666446467	0	0	0
237	1	1	-37.96267748501865	-15.2094962522297	5.159862720738122	0	0	0
238	1	1	-38.188834867547136	-15.458295352264965	4.218081511459923	0	0	0
239	1	1	-38.41499225007562	-14.767088450240848	3.5317245657515777	0	0	0
240	1	1	-38.641149632604105	-15.015887550276114	2.5899433564733787	0	0	0
241	1	1	-38.86730701513259	-14.324680648251997	1.9035864107650333	0	0	0
242	1	1	-30.624949564093658	-23.552186502465478	35.04602983029006	0	0	0
243	1	1	-31.428887414194097	-23.734770600131185	35.61202186243847	0	0	0
244	1	1	-32.23282526429453	-23.33589917078394	36.053140345418235	0	0	0
245	1	1	-33.03676311439497	-23.518483268449646	36.61913237756664	0	0	0
246	1	1	-33.84070096449541	-23.1196118391024	37.06025086054641	0	0	0
247	1	1	-34.64463881459585	-23.302195936768108	37.62624289269482	0	0	0
248	1	1	-35.44857666469629	-22.903324507420862	38.06736137567459	0	0	0
249	1	1	-36.25251451479673	-23.08590860508657	38.633353407822995	0	0	0
250	1	1	-37.05645236489717	-22.687037175739324	39.07447189080276	0	0	0
251	1	1	-37.86039021499761	-22.86962127340503	39.64046392295117	0	0	0
252	1	1	-38.66432806509805	-22.470749844057785	40.08158240593094	0	0	0
253	1	1	-39.46826591519849	-22.653333941723492	40.647574438079346	0	0	0
254	1	1	-40.272203765298926	-22.254462512376247	41.08869292105911	0	0	0
255	1	1	-41.076141615399365	-22.437046610041953	41.65468495320752	0	0	0
256	1	1	-41.880079465499804	-22.038175180694708	42.09580343618729	0	0	0
257	1	1	-42.684017315600244	-22.220759278360415	42.6617954683357	0	0	0
258	1	1	-43.48795516570068	-21.82188784901317	43.102913951315465	0	0	0
259	1	1	-44.29189301580112	-22.004471946678876	43.66890598346387	0	0	0
260	1	1	-45.09583086590156	-21.60560051733163	44.11002446644364	0	0	0
261	1	1	-45.899768716002	-21.788184614997338	44.67601649859205	0	0	0
262	1	1	-46.70370656610244	-21.389313185650092	45.117134981571816	0	0	0
263	1	1	-47.50764441620288	-21.5718972833158	45.683127013720224	0	0	0
264	1	1	-48.31158226630332	-21.173025853968554	46.12424549669999	0	0	0
265	1	1	-49.11552011640376	-21.35560995163426	46.6902375288484	0	0	0
266	1	1	-49.9194579665042	-20.956738522287015	47.13135601182817	0	0	0
267	1	1	-50.723395816604636	-21.139322619952722	47.697348043976575	0	0	0
268	1	1	-51.527333666705076	-20.740451190605476	48.13846652695634	0	0	0
269	1	1	-52.331271516805515	-20.923035288271183	48.70445855910475	0	0	0
270	1	1	-53.135209366905954	-20.524163858923938	49.14557704208452	0	0	0
271	1	1	-53.93914721700639	-20.706747956589645	49.711569074232926	0	0	0
272	1	1	-54.74308506710683	-20.3078765272424	50.152687557212694	0	0	0
273	1	1	-55.54702291720727	-20.490460624908106	50.7186795893611	0	0	0
274	1	1	-56.35096076730771	-20.09158919556086	51.15979807234087	0	0	0
275	1	1	-57.15489861740815	-20.274173293226568	51.72579010448928	0	0	0
276	1	1	-57.95883646750859	-19.875301863879322	52.166908587469045	0	0	0
277	1	1	-58.76277431760903	-20.05788596154503	52.73290061961745	0	0	0
278	1	1	-59.56671216770947	-19.659014532197784	53.17401910259722	0	0	0
279	1	1	-60.37065001780991	-19.84159862986349	53.74001113474563	0	0	0
280	1	1	-61.17458786791035	-19.442727200516245	54.1811296177254	0	0	0
281	1	1	-61.978525718010786	-19.625311298181952	54.747121649873804	0	0	0
282	1	1	-62.37111480623548	-20.509514285410322	54.49402308175591	0	0	0
283	1	1	-62.76370389446018	-21.148707250393233	53.832731798490165	0	0	0
284	1	1	-63.156292982684874	-22.040998783494036	54.05564350245279	0	0	0
285	1	1	-63.54888207090957	-22.680191748476947	53.39435221918704	0	0	0
286	1	1	-63.94147115913427	-23.57248328157775	53.617263923149665	0	0	0
287	1	1	-64.33406024735896	-24.21167624656066	52.95597263988392	0	0	0
288	1	1	-64.72664933558366	-25.103967779661463	53.17888434384654	0	0	0
289	1	1	-65.11923842380835	-25.743160744644374	52.51759306058079	0	0	0
290	1	1	-65.51182751203305	-26.635452277745177	52.74050476454342	0	0	0
291	1	1	-65.90441660025775	-27.274645242728088	52.07921348127767	0	0	0
292	1	1	-66.29700568848244	-28.16693677582889	52.30212518524029	0	0	0
293	1	1	-66.68959477670714	-28.8061297408118	51.640833901974545	0	0	0
294	1	1	-67.08218386493184	-29.698421273912604	51.86374560593717	0	0	0
295	1	1	-67.47477295315653	-30.337614238895515	51.20245432267142	0	0	0
296	1	1	-67.86736204138123	-31.229905771996318	51.425366026634045	0	0	0
297	1	1	-68.25995112960592	-31.86909873697923	50.7640747433683	0	0	0
298	1	1	-68.65254021783062	-32.76139027008003	50.98698644733092	0	0	0
299	1	1	-69.04512930605532	-33.40058323506294	50.32569516406517	0	0	0
300	1	1	-69.43771839428001	-34.29287476816374	50.5486068680278	0	0	0
301	1	1	-69.83030748250471	-34.93206773314665	49.88731558476205	0	0	0
302	1	1	-70.2228965707294	-35.824359266247455	50.11022728872467	0	0	0
303	1	1	-70.6154856589541	-36.463552231230366	49.448936005458926	0	0	0
304	1	1	-71.0080747471788	-37.35584376433117	49.67184770942155	0	0	0
305	1	1	-71.40066383540349	-37.99503672931408	49.0105564261558	0	0	0
306	1	1	-71.79325292362819	-38.88732826241488	49.233468130118425	0	0	0
307	1	1	-72.18584201185288	-39.526521227397794	48.57217684685268	0	0	0
308	1	1	-72.57843110007758	-40.4188127604986	48.7950885508153	0	0	0
309	1	1	-72.97102018830228	-41.05800572548151	48.133797267549554	0	0	0
310	1	1	-73.36360927652697	-41.95029725858231	48.35670897151218	0	0	0
311	1	1	-73.75619836475167	-42.58949022356522	47.69541768824643	0	0	0
312	1	1	-74.14878745297636	-43.481781756666024	47.91832939220905	0	0	0
313	1	1	-74.54137654120106	-44.120974721648935	47.257038108943306	0	0	0
314	1	1	-74.93396562942576	-45.01326625474974	47.47994981290593	0	0	0
315	1	1	-75.32655471765045	-45.65245921973265	46.81865852964018	0	0	0
316	1	1	-75.71914380587515	-46.54475075283345	47.041570233602805	0	0	0
317	1	1	-76.11173289409984	-47.18394371781636	46.38027895033706	0	0	0
318	1	1	-76.50432198232454	-48.076235250917165	46.60319065429968	0	0	0
319	1	1	-76.89691107054924	-48.715428215900076	45.941899371033934	0	0	0
320	1	1	-77.28950015877393	-49.60771974900088	46.16481107499656	0	0	0
321	1	1	-77.68208924699863	-50.24691271398379	45.50351979173081	0	0	0
322	1	1	-62.65819570863836	-18.905983739613283	54.60353694552146	0	0	0
323	1	1	-63.33786569926593	-18.211235448074405	54.838852723241786	0	0	0
324	1	1	-64.0175356898935	-17.66007186088787	54.354840942393444	0	0	0
325	1	1	-64.69720568052108	-16.965323569348993	54.59015672011377	0	0	0
326	1	1	-65.37687567114865	-16.41415998216246	54.10614493926543	0	0	0
327	1	1	-66.05654566177623	-15.719411690623582	54.34146071698575	0	0	0
328	1	1	-66.7362156524038	-15.16824810343705	53.85744893613741	0	0	0
329	1	1	-67.41588564303137	-14.473499811898172	54.09276471385773	0	0	0
330	1	1	-68.09555563365895	-13.92233622471164	53.60875293300939	0	0	0
331	1	1	-68.77522562428652	-13.227587933172762	53.844068710729715	0	0	0
332	1	1	-69.4548956149141	-12.676424345986229	53.360056929881374	0	0	0
333	1	1	-70.13456560554167	-11.981676054447352	53.5953727076017	0	0	0
334	1	1	-70.81423559616924	-11.430512467260819	53.111360926753356	0	0	0
335	1	1	-71.49390558679681	-10.735764175721942	53.34667670447368	0	0	0
336	1	1	-72.17357557742439	-10.184600588535409	52.86266492362534	0	0	0
337	1	1	-72.85324556805196	-9.489852296996531	53.09798070134566	0	0	0
338	1	1	-73.53291555867953	-8.938688709809998	52.61396892049732	0	0	0
339	1	1	-74.21258554930711	-8.243940418271121	52.849284698217645	0	0	0
340	1	1	-74.89225553993468	-7.692776831084588	52.3652729173693	0	0	0
341	1	1	-75.57192553056225	-6.998028539545711	52.60058869508963	0	0	0
342	1	1	-76.25159552118983	-6.446864952359178	52.116576914241286	0	0	0
343	1	1	-76.9312655118174	-5.752116660820301	52.35189269196161	0	0	0
344	1	1	-77.61093550244497	-5.200953073633768	51.86788091111327	0	0	0
345	1	1	-78.29060549307255	-4.5062047820948905	52.10319668883359	0	0	0
346	1	1	-78.97027548370012	-3.9550411949083575	51.61918490798525	0	0	0
347	1	1	-79.6499454743277	-3.26029290336948	51.854500685705574	0	0	0
348	1	1	-80.32961546495527	-2.7091293161829464	51.37048890485723	0	0	0
349	1	1	-81.00928545558284	-2.0143810246440688	51.605804682577556	0	0	0
350	1	1	-81.68895544621041	-1.4632174374575355	51.121792901729215	0	0	0
351	1	1	-82.36862543683799	-0.768469145918658	51.35710867944954	0	0	0
352	1	1	-83.04829542746556	-0.21730555873212476	50.8730968986012	0	0	0
353	1	1	-83.72796541809313	0.47744273280675276	51.10841267632152	0	0	0
354	1	1	-84.40763540872071	1.028606319993286	50.62440089547318	0	0	0
355	1	1	-85.08730539934828	1.7233546115321636	50.8597166731935	0	0	0
356	1	1	-85.76697538997585	2.274518198718697	50.37570489234516	0	0	0
357	1	1	-86.44664538060343	2.9692664902575747	50.611020670065486	0	0	0
358	1	1	-87.126315371231	3.520430077444108	50.127008889217144	0	0	0
359	1	1	-87.80598536185857	4.215178368982985	50.36232466693747	0	0	0
360	1	1	-88.48565535248615	4.766341956169518	49.87831288608913	0	0	0
361	1	1	-89.16532534311372	5.461090247708396	50.11362866380945	0	0	0
362	1	1	-61.71134654544205	-19.643279342085716	55.71060099015244	0	0	0
363	1	1	-61.44416737287331	-20.140579794702006	56.53601455290333	0	0	0
364	1	1	-61.17698820030457	-19.67440090703966	57.379396159557984	0	0	0
365	1	1	-60.90980902773583	-20.171701359655952	58.20480972230887	0	0	0
366	1	1	-60.642629855167094	-19.705522471993607	59.048191328963526	0	0	0
367	1	1	-60.375450682598355	-20.202822924609897	59.873604891714415	0	0	0
368	1	1	-60.10827151002962	-19.736644036947553	60.71698649836907	0	0	0
369	1	1	-59.84109233746088	-20.233944489563843	61.542400061119956	0	0	0
370	1	1	-59.57391316489214	-19.7677656019015	62.38578166777461	0	0	0
371	1	1	-59.3067339923234	-20.26506605451779	63.2111952305255	0	0	0
372	1	1	-59.03955481975466	-19.798887166855444	64.05457683718015	0	0	0
373	1	1	-58.772375647185925	-20.296187619471734	64.87999039993103	0	0	0
374	1	1	-58.505196474617186	-19.83000873180939	65.72337200658568	0	0	0
375	1	1	-58.23801730204845	-20.32730918442568	66.54878556933656	0	0	0
376	1	1	-57.97083812947971	-19.861130296763335	67.3921671759912	0	0	0
377	1	1	-57.70365895691097	-20.358430749379625	68.21758073874209	0	0	0
378	1	1	-57.43647978434223	-19.89225186171728	69.06096234539673	0	0	0
379	1	1	-57.169300611773494	-20.38955231433357	69.88637590814761	0	0	0
380	1	1	-56.902121439204755	-19.923373426671226	70.72975751480226	0	0	0
381	1	1	-56.63494226663602	-20.420673879287516	71.55517107755314	0	0	0
382	1	1	-56.36776309406728	-19.95449499162517	72.39855268420779	0	0	0
383	1	1	-56.10058392149854	-20.451795444241462	73.22396624695867	0	0	0
384	1	1	-55.8334047489298	-19.985616556579117	74.06734785361331	0	0	0
385	1	1	-55.56622557636106	-20.482917009195408	74.8927614163642	0	0	0
386	1	1	-55.299046403792325	-20.016738121533063	75.73614302301884	0	0	0
387	1	1	-55.031867231223586	-20.514038574149353	76.56155658576972	0	0	0
388	1	1	-54.76468805865485	-20.04785968648701	77.40493819242437	0	0	0
389	1	1	-54.49750888608611	-20.5451601391033	78.23035175517525	0	0	0
390	1	1	-54.23032971351737	-20.078981251440954	79.0737333618299	0	0	0
391	1	1	-53.96315054094863	-20.576281704057244	79.89914692458078	0	0	0
392	1	1	-53.695971368379894	-20.1101028163949	80.74252853123542	0	0	0
393	1	1	-53.428792195811155	-20.60740326901119	81.5679420939863	0	0	0
394	1	1	-53.16161302324242	-20.141224381348845	82.41132370064095	0	0	0
395	1	1	-52.89443385067368	-20.638524833965135	83.23673726339183	0	0	0
396	1	1	-52.62725467810494	-20.17234594630279	84.08011887004648	0	0	0
397	1	1	-52.3600755055362	-20.66964639891908	84.90553243279736	0	0	0
398	1	1	-52.09289633296746	-20.203467511256736	85.748914039452	0	0	0
399	1	1	-51.825717160398725	-20.700767963873027	86.57432760220289	0	0	0
400	1	1	-51.558537987829986	-20.234589076210682	87.41770920885753	0	0	0
401	1	1	-51.29135881526125	-20.731889528826972	88.24312277160841	0	0	0

Bonds

1	1	1	2
2	1	2	3
3	1	3	4
4	1	4	5
5	1	5	6
6	1	6	7
7	1	7	8
8	1	8	9
9	1	9	10
10	1	10	11
11	1	11	12
12	1	12	13
13	1	13	14
14	1	14	15
15	1	15	16
16	1	16	17
17	1	17	18
18	1	18	19
19	1	19	20
20	1	20	21
21	1	21	22
22	1	22	23
23	1	23	24
24	1	24	25
25	1	25	26
26	1	26	27
27	1	27	28
28	1	28	29
29	1	29	30
30	1	30	31
31	1	31	32
32	1	32	33
33	1	33	34
34	1	34	35
35	1	35	36
36	1	36	37
37	1	37	38
38	1	38	39
39	1	39	40
40	1	40	41
41	1	41	42
42	1	41	82
43	1	41	122
44	1	42	43
45	1	43	44
46	1	44	45
47	1	45	46
48	1	46	47
49	1	47	48
50	1	48	49
51	1	49	50
52	1	50	51
53	1	51	52
54	1	52	53
55	1	53	54
56	1	54	55
57	1	55	56
58	1	56	57
59	1	57	58
60	1	58	59
61	1	59	60
62	1	60	61
63	1	61	62
64	1	62	63
65	1	63	64
66	1	64	65
67	1	65	66
68	1	66	67
69	1	67	68
70	1	68	69
71	1	69	70
72	1	70	71
73	1	71	72
74	1	72	73
75	1	73	74
76	1	74	75
77	1	75	76
78	1	76	77
79	1	77	78
80	1	78	79
81	1	79	80
82	1	80	81
83	1	82	83
84	1	83	84
85	1	84	85
86	1	85	86
87	1	86	87
88	1	87	88
89	1	88	89
90	1	89	90
91	1	90	91
92	1	91	92
93	1	92	93
94	1	93	94
95	1	94	95
96	1	95	96
97	1	96	97
98	1	97	98
99	1	98	99
100	1	99	100
101	1	100	101
102	1	101	102
103	1	102	103
104	1	103	104
105	1	104	105
106	1	105	106
107	1	106	107
108	1	107	108
109	1	108	109
110	1	109	110
111	1	110	111
112	1	111	112
113	1	112	113
114	1	113	114
115	1	114	115
116	1	115	116
117	1	116	117
118	1	117	118
119	1	118	119
120	1	119	120
121	1	120	121
122	1	122	123
123	1	123	124
124	1	124	125
125	1	125	126
126	1	126	127
127	1	127	128
128	1	128	129
129	1	129	130
130	1	130	131
131	1	131	132
132	1	132	133
133	1	133	134
134	1	134	135
135	1	135	136
136	1	136	137
137	1	137	138
138	1	138	139
139	1	139	140
140	1	140	141
141	1	141	142
142	1	142	143
143	1	143	144
144	1	144	145
145	1	145	146
146	1	146	147
147	1	147	148
148	1	148	149
149	1	149	150
150	1	150	151
151	1	151	152
152	1	152	153
153	1	153	154
154	1	154	155
155	1	155	156
156	1	156	157
157	1	157	158
158	1	158	159
159	1	159	160
160	1	160	161
161	1	161	162
162	1	161	202
163	1	161	242
164	1	162	163
165	1	163	164
166	1	164	165
167	1	165	166
168	1	166	167
169	1	167	168
170	1	168	169
171	1	169	170
172	1	170	171
173	1	171	172
174	1	172	173
175	1	173	174
176	1	174	175
177	1	175	176
178	1	176	177
179	1	177	178
180	1	178	179
181	1	179	180
182	1	180	181
183	1	181	182
184	1	182	183
185	1	183	184
186	1	184	185
187	1	185	186
188	1	186	187
189	1	187	188
190	1	188	189
191	1	189	190
192	1	190	191
193	1	191	192
194	1	192	193
195	1	193	194
196	1	194	195
197	1	195	196
198	1	196	197
199	1	197	198
200	1	198	199