bb280nuc3bl70bn4d30tot700V2

701 atoms
700 bonds
708 angles

1 atom types
1 bond types
1 angle types

-1000 1000 xlo xhi
-1000 1000 ylo yhi
-1000 1000 zlo zhi

Masses

1 1

Atoms

1	1	1	0.0	0.0	0.0	0	0	0
2	1	1	0.0	0.0	1.0	0	0	0
3	1	1	0.0	-0.49999999999999994	1.8660254037844388	0	0	0
4	1	1	0.0	0.0	2.7320508075688776	0	0	0
5	1	1	0.0	-0.49999999999999994	3.5980762113533165	0	0	0
6	1	1	0.0	0.0	4.464101615137755	0	0	0
7	1	1	0.0	-0.49999999999999994	5.330127018922194	0	0	0
8	1	1	0.0	0.0	6.196152422706632	0	0	0
9	1	1	0.0	-0.49999999999999994	7.06217782649107	0	0	0
10	1	1	0.0	0.0	7.928203230275509	0	0	0
11	1	1	0.0	-0.49999999999999994	8.794228634059948	0	0	0
12	1	1	0.0	0.0	9.660254037844387	0	0	0
13	1	1	0.0	-0.49999999999999994	10.526279441628827	0	0	0
14	1	1	0.0	0.0	11.392304845413266	0	0	0
15	1	1	0.0	-0.49999999999999994	12.258330249197705	0	0	0
16	1	1	0.0	0.0	13.124355652982144	0	0	0
17	1	1	0.0	-0.49999999999999994	13.990381056766584	0	0	0
18	1	1	0.0	0.0	14.856406460551023	0	0	0
19	1	1	0.0	-0.49999999999999994	15.722431864335462	0	0	0
20	1	1	0.0	0.0	16.5884572681199	0	0	0
21	1	1	0.0	-0.49999999999999994	17.454482671904337	0	0	0
22	1	1	0.0	0.0	18.320508075688775	0	0	0
23	1	1	0.0	-0.49999999999999994	19.186533479473212	0	0	0
24	1	1	0.0	0.0	20.05255888325765	0	0	0
25	1	1	0.0	-0.49999999999999994	20.918584287042087	0	0	0
26	1	1	0.0	0.0	21.784609690826525	0	0	0
27	1	1	0.0	-0.49999999999999994	22.650635094610962	0	0	0
28	1	1	0.0	0.0	23.5166604983954	0	0	0
29	1	1	0.0	-0.49999999999999994	24.382685902179837	0	0	0
30	1	1	0.0	0.0	25.248711305964274	0	0	0
31	1	1	0.0	-0.49999999999999994	26.114736709748712	0	0	0
32	1	1	0.0	0.0	26.98076211353315	0	0	0
33	1	1	0.0	-0.49999999999999994	27.846787517317587	0	0	0
34	1	1	0.0	0.0	28.712812921102024	0	0	0
35	1	1	0.0	-0.49999999999999994	29.578838324886462	0	0	0
36	1	1	0.0	0.0	30.4448637286709	0	0	0
37	1	1	0.0	-0.49999999999999994	31.310889132455337	0	0	0
38	1	1	0.0	0.0	32.17691453623978	0	0	0
39	1	1	0.0	-0.49999999999999994	33.04293994002422	0	0	0
40	1	1	0.0	0.0	33.90896534380866	0	0	0
41	1	1	0.0	-0.49999999999999994	34.7749907475931	0	0	0
42	1	1	0.0	0.0	35.64101615137754	0	0	0
43	1	1	0.0	-0.49999999999999994	36.50704155516198	0	0	0
44	1	1	0.0	0.0	37.373066958946424	0	0	0
45	1	1	0.0	-0.49999999999999994	38.239092362730865	0	0	0
46	1	1	0.0	0.0	39.105117766515306	0	0	0
47	1	1	0.0	-0.49999999999999994	39.97114317029975	0	0	0
48	1	1	0.0	0.0	40.83716857408419	0	0	0
49	1	1	0.0	-0.49999999999999994	41.70319397786863	0	0	0
50	1	1	0.0	0.0	42.56921938165307	0	0	0
51	1	1	0.0	-0.49999999999999994	43.43524478543751	0	0	0
52	1	1	0.0	0.0	44.30127018922195	0	0	0
53	1	1	0.0	-0.49999999999999994	45.16729559300639	0	0	0
54	1	1	0.0	0.0	46.033320996790835	0	0	0
55	1	1	0.0	-0.49999999999999994	46.899346400575276	0	0	0
56	1	1	0.0	0.0	47.76537180435972	0	0	0
57	1	1	0.0	-0.49999999999999994	48.63139720814416	0	0	0
58	1	1	0.0	0.0	49.4974226119286	0	0	0
59	1	1	0.0	-0.49999999999999994	50.36344801571304	0	0	0
60	1	1	0.0	0.0	51.22947341949748	0	0	0
61	1	1	0.0	-0.49999999999999994	52.09549882328192	0	0	0
62	1	1	0.0	0.0	52.96152422706636	0	0	0
63	1	1	0.0	-0.49999999999999994	53.827549630850804	0	0	0
64	1	1	0.0	0.0	54.693575034635245	0	0	0
65	1	1	0.0	-0.49999999999999994	55.559600438419686	0	0	0
66	1	1	0.0	0.0	56.42562584220413	0	0	0
67	1	1	0.0	-0.49999999999999994	57.29165124598857	0	0	0
68	1	1	0.0	0.0	58.15767664977301	0	0	0
69	1	1	0.0	-0.49999999999999994	59.02370205355745	0	0	0
70	1	1	0.0	0.0	59.88972745734189	0	0	0
71	1	1	0.0	-0.49999999999999994	60.75575286112633	0	0	0
72	1	1	-0.5053780133065954	0.0222079788622343	61.44269673836734	0	0	0
73	1	1	-1.0107560266131896	0.1309814159953544	62.29871157646334	0	0	0
74	1	1	-1.516134039919784	0.9266987303694767	62.63251843569711	0	0	0
75	1	1	-2.0215120532263784	1.0354721675025969	63.48853327379311	0	0	0
76	1	1	-2.5268900665329728	1.8311894818767191	63.82234013302688	0	0	0
77	1	1	-3.032268079839567	1.9399629190098393	64.67835497112289	0	0	0
78	1	1	-3.5376460931461615	2.7356802333839614	65.01216183035666	0	0	0
79	1	1	-4.043024106452756	2.8444536705170815	65.86817666845266	0	0	0
80	1	1	-4.54840211975935	3.6401709848912036	66.20198352768644	0	0	0
81	1	1	-5.053780133065945	3.7489444220243238	67.05799836578244	0	0	0
82	1	1	-5.559158146372539	4.544661736398446	67.39180522501621	0	0	0
83	1	1	-6.064536159679133	4.653435173531566	68.24782006311221	0	0	0
84	1	1	-6.569914172985728	5.449152487905688	68.58162692234599	0	0	0
85	1	1	-7.075292186292322	5.557925925038808	69.43764176044199	0	0	0
86	1	1	-7.5806701995989165	6.35364323941293	69.77144861967577	0	0	0
87	1	1	-8.08604821290551	6.4624166765460505	70.62746345777177	0	0	0
88	1	1	-8.591426226212104	7.2581339909201725	70.96127031700554	0	0	0
89	1	1	-9.096804239518697	7.366907428053293	71.81728515510154	0	0	0
90	1	1	-9.60218225282529	8.162624742427415	72.15109201433532	0	0	0
91	1	1	-10.107560266131884	8.271398179560535	73.00710685243132	0	0	0
92	1	1	-10.612938279438477	9.067115493934658	73.3409137116651	0	0	0
93	1	1	-11.118316292745071	9.175888931067778	74.1969285497611	0	0	0
94	1	1	-11.623694306051664	9.971606245441901	74.53073540899487	0	0	0
95	1	1	-12.129072319358258	10.080379682575021	75.38675024709087	0	0	0
96	1	1	-12.634450332664851	10.876096996949144	75.72055710632465	0	0	0
97	1	1	-13.139828345971445	10.984870434082264	76.57657194442065	0	0	0
98	1	1	-13.645206359278038	11.780587748456387	76.91037880365442	0	0	0
99	1	1	-14.150584372584632	11.889361185589507	77.76639364175043	0	0	0
100	1	1	-14.655962385891225	12.68507849996363	78.1002005009842	0	0	0
101	1	1	-15.161340399197819	12.79385193709675	78.9562153390802	0	0	0
102	1	1	-15.666718412504412	13.589569251470873	79.29002219831398	0	0	0
103	1	1	-16.172096425811006	13.698342688603994	80.14603703640998	0	0	0
104	1	1	-16.6774744391176	14.494060002978117	80.47984389564375	0	0	0
105	1	1	-17.182852452424193	14.602833440111237	81.33585873373976	0	0	0
106	1	1	-17.688230465730786	15.39855075448536	81.66966559297353	0	0	0
107	1	1	-18.19360847903738	15.50732419161848	82.52568043106953	0	0	0
108	1	1	-18.698986492343973	16.303041505992603	82.8594872903033	0	0	0
109	1	1	-19.204364505650567	16.411814943125723	83.71550212839931	0	0	0
110	1	1	-19.70974251895716	17.207532257499846	84.04930898763308	0	0	0
111	1	1	-20.215120532263754	17.316305694632966	84.90532382572908	0	0	0
112	1	1	-20.720498545570347	18.11202300900709	85.23913068496286	0	0	0
113	1	1	-21.22587655887694	18.22079644614021	86.09514552305886	0	0	0
114	1	1	-21.731254572183534	19.016513760514332	86.42895238229264	0	0	0
115	1	1	-22.236632585490128	19.125287197647452	87.28496722038864	0	0	0
116	1	1	-22.74201059879672	19.921004512021575	87.61877407962241	0	0	0
117	1	1	-23.247388612103315	20.029777949154695	88.47478891771841	0	0	0
118	1	1	-23.752766625409908	20.82549526352882	88.80859577695219	0	0	0
119	1	1	-24.2581446387165	20.93426870066194	89.66461061504819	0	0	0
120	1	1	-24.763522652023095	21.72998601503606	89.99841747428196	0	0	0
121	1	1	-25.26890066532969	21.83875945216918	90.85443231237797	0	0	0
122	1	1	-25.774278678636282	22.634476766543305	91.18823917161174	0	0	0
123	1	1	-26.279656691942876	22.743250203676425	92.04425400970774	0	0	0
124	1	1	-26.78503470524947	23.538967518050548	92.37806086894152	0	0	0
125	1	1	-27.290412718556063	23.647740955183668	93.23407570703752	0	0	0
126	1	1	-27.795790731862656	24.44345826955779	93.5678825662713	0	0	0
127	1	1	-28.30116874516925	24.55223170669091	94.4238974043673	0	0	0
128	1	1	-28.806546758475843	25.347949021065034	94.75770426360107	0	0	0
129	1	1	-29.311924771782436	25.456722458198154	95.61371910169707	0	0	0
130	1	1	-29.81730278508903	26.252439772572277	95.94752596093085	0	0	0
131	1	1	-30.322680798395623	26.361213209705397	96.80354079902685	0	0	0
132	1	1	-30.828058811702217	27.15693052407952	97.13734765826062	0	0	0
133	1	1	-31.33343682500881	27.26570396121264	97.99336249635662	0	0	0
134	1	1	-31.838814838315404	28.061421275586763	98.3271693555904	0	0	0
135	1	1	-32.344192851622	28.170194712719884	99.1831841936864	0	0	0
136	1	1	-32.849570864928594	28.965912027094006	99.51699105292018	0	0	0
137	1	1	-33.35494887823519	29.074685464227127	100.37300589101618	0	0	0
138	1	1	-33.86032689154179	29.87040277860125	100.70681275024995	0	0	0
139	1	1	-34.365704904848386	29.97917621573437	101.56282758834595	0	0	0
140	1	1	-34.87108291815498	30.774893530108493	101.89663444757973	0	0	0
141	1	1	-35.37646093146158	30.883666967241613	102.75264928567573	0	0	0
142	1	1	0.941800415132417	-0.6324256238765021	61.064743851605556	0	0	0
143	1	1	1.8836008302648324	-0.9016050735051659	61.26612508696282	0	0	0
144	1	1	2.8254012453972477	-0.8617935326546097	61.59993194619659	0	0	0
145	1	1	3.767201660529663	-1.1309729822832735	61.80131318155386	0	0	0
146	1	1	4.709002075662078	-1.091161441432717	62.135120040787626	0	0	0
147	1	1	5.650802490794494	-1.360340891061381	62.336501276144894	0	0	0
148	1	1	6.592602905926909	-1.3205293502108246	62.67030813537866	0	0	0
149	1	1	7.534403321059324	-1.5897087998394885	62.87168937073593	0	0	0
150	1	1	8.476203736191739	-1.5498972589889322	63.2054962299697	0	0	0
151	1	1	9.418004151324155	-1.819076708617596	63.406877465326964	0	0	0
152	1	1	10.359804566456571	-1.7792651677670397	63.74068432456073	0	0	0
153	1	1	11.301604981588987	-2.0484446173957034	63.942065559918	0	0	0
154	1	1	12.243405396721403	-2.0086330765451472	64.27587241915177	0	0	0
155	1	1	13.18520581185382	-2.277812526173811	64.47725365450904	0	0	0
156	1	1	14.127006226986236	-2.238000985323255	64.81106051374282	0	0	0
157	1	1	15.068806642118652	-2.507180434951919	65.01244174910009	0	0	0
158	1	1	16.010607057251068	-2.4673688941013627	65.34624860833387	0	0	0
159	1	1	16.952407472383484	-2.7365483437300266	65.54762984369114	0	0	0
160	1	1	17.8942078875159	-2.6967368028794705	65.88143670292492	0	0	0
161	1	1	18.836008302648317	-2.9659162525081344	66.08281793828219	0	0	0
162	1	1	19.777808717780733	-2.9261047116575782	66.41662479751596	0	0	0
163	1	1	20.71960913291315	-3.195284161286242	66.61800603287324	0	0	0
164	1	1	21.661409548045565	-3.155472620435686	66.95181289210701	0	0	0
165	1	1	22.60320996317798	-3.42465207006435	67.15319412746429	0	0	0
166	1	1	23.545010378310398	-3.3848405292137937	67.48700098669806	0	0	0
167	1	1	24.486810793442814	-3.6540199788424577	67.68838222205534	0	0	0
168	1	1	25.42861120857523	-3.6142084379919015	68.02218908128911	0	0	0
169	1	1	26.370411623707646	-3.8833878876205654	68.22357031664639	0	0	0
170	1	1	27.312212038840062	-3.8435763467700093	68.55737717588016	0	0	0
171	1	1	28.25401245397248	-4.112755796398673	68.75875841123744	0	0	0
172	1	1	29.195812869104895	-4.072944255548117	69.09256527047121	0	0	0
173	1	1	30.13761328423731	-4.34212370517678	69.29394650582849	0	0	0
174	1	1	31.079413699369727	-4.302312164326223	69.62775336506226	0	0	0
175	1	1	32.02121411450214	-4.571491613954887	69.82913460041954	0	0	0
176	1	1	32.963014529634556	-4.53168007310433	70.16294145965331	0	0	0
177	1	1	33.90481494476697	-4.800859522732994	70.36432269501059	0	0	0
178	1	1	34.84661535989938	-4.761047981882437	70.69812955424436	0	0	0
179	1	1	35.788415775031794	-5.030227431511101	70.89951078960163	0	0	0
180	1	1	36.73021619016421	-4.990415890660544	71.23331764883541	0	0	0
181	1	1	37.67201660529662	-5.2595953402892075	71.43469888419268	0	0	0
182	1	1	38.61381702042903	-5.219783799438651	71.76850574342646	0	0	0
183	1	1	39.555617435561444	-5.488963249067314	71.96988697878373	0	0	0
184	1	1	40.49741785069386	-5.449151708216758	72.30369383801751	0	0	0
185	1	1	41.43921826582627	-5.718331157845421	72.50507507337478	0	0	0
186	1	1	42.38101868095868	-5.678519616994865	72.83888193260856	0	0	0
187	1	1	43.322819096091095	-5.947699066623528	73.04026316796583	0	0	0
188	1	1	44.26461951122351	-5.9078875257729715	73.37407002719961	0	0	0
189	1	1	45.20641992635592	-6.177066975401635	73.57545126255688	0	0	0
190	1	1	46.14822034148833	-6.137255434551078	73.90925812179066	0	0	0
191	1	1	47.090020756620746	-6.406434884179742	74.11063935714793	0	0	0
192	1	1	48.03182117175316	-6.366623343329185	74.4444462163817	0	0	0
193	1	1	48.97362158688557	-6.635802792957849	74.64582745173898	0	0	0
194	1	1	49.91542200201798	-6.595991252107292	74.97963431097276	0	0	0
195	1	1	50.857222417150396	-6.865170701735956	75.18101554633003	0	0	0
196	1	1	51.79902283228281	-6.825359160885399	75.5148224055638	0	0	0
197	1	1	52.74082324741522	-7.094538610514062	75.71620364092108	0	0	0
198	1	1	53.682623662547634	-7.054727069663506	76.05001050015485	0	0	0
199	1	1	54.62442407768005	-7.323906519292169	76.25139173551213	0	0	0
200	1	1	55.56622449281246	-7.284094978441613	76.5851985947459	0	0	0
201	1	1	56.50802490794487	-7.553274428070276	76.78657983010318	0	0	0
202	1	1	57.449825323077285	-7.5134628872197196	77.12038668933695	0	0	0
203	1	1	58.3916257382097	-7.782642336848383	77.32176792469423	0	0	0
204	1	1	59.33342615334211	-7.742830795997826	77.655574783928	0	0	0
205	1	1	60.27522656847452	-8.01201024562649	77.85695601928528	0	0	0
206	1	1	61.217026983606935	-7.972198704775933	78.19076287851905	0	0	0
207	1	1	62.15882739873935	-8.241378154404597	78.39214411387633	0	0	0
208	1	1	63.10062781387176	-8.201566613554041	78.7259509731101	0	0	0
209	1	1	64.04242822900417	-8.470746063182705	78.92733220846738	0	0	0
210	1	1	64.98422864413659	-8.43093452233215	79.26113906770115	0	0	0
211	1	1	65.92602905926901	-8.700113971960814	79.46252030305843	0	0	0
212	1	1	-0.43642240182582853	-1.3904926438363887	60.62707365356793	0	0	0
213	1	1	-0.8728448036516563	-2.0973422915026707	60.07038786896532	0	0	0
214	1	1	-1.309267205477484	-2.932871146727348	60.404194728199094	0	0	0
215	1	1	-1.745689607303312	-3.63972079439363	59.84750894359648	0	0	0
216	1	1	-2.1821120091291397	-4.475249649618307	60.181315802830255	0	0	0
217	1	1	-2.6185344109549673	-5.182099297284589	59.62463001822764	0	0	0
218	1	1	-3.0549568127807953	-6.017628152509267	59.958436877461416	0	0	0
219	1	1	-3.491379214606623	-6.724477800175548	59.4017510928588	0	0	0
220	1	1	-3.927801616432451	-7.560006655400226	59.73555795209258	0	0	0
221	1	1	-4.3642240182582785	-8.266856303066508	59.17887216748996	0	0	0
222	1	1	-4.800646420084107	-9.102385158291185	59.51267902672374	0	0	0
223	1	1	-5.237068821909935	-9.809234805957466	58.955993242121124	0	0	0
224	1	1	-5.673491223735763	-10.644763661182143	59.2898001013549	0	0	0
225	1	1	-6.109913625561591	-11.351613308848425	58.733114316752285	0	0	0
226	1	1	-6.546336027387419	-12.187142164073101	59.06692117598606	0	0	0
227	1	1	-6.982758429213247	-12.893991811739383	58.510235391383446	0	0	0
228	1	1	-7.419180831039075	-13.72952066696406	58.84404225061722	0	0	0
229	1	1	-7.855603232864903	-14.436370314630341	58.28735646601461	0	0	0
230	1	1	-8.29202563469073	-15.271899169855018	58.62116332524838	0	0	0
231	1	1	-8.728448036516559	-15.9787488175213	58.06447754064577	0	0	0
232	1	1	-9.164870438342387	-16.814277672745977	58.39828439987954	0	0	0
233	1	1	-9.601292840168215	-17.52112732041226	57.84159861527693	0	0	0
234	1	1	-10.037715241994043	-18.356656175636935	58.175405474510704	0	0	0
235	1	1	-10.474137643819871	-19.063505823303217	57.61871968990809	0	0	0
236	1	1	-10.910560045645699	-19.899034678527894	57.952526549141865	0	0	0
237	1	1	-11.346982447471527	-20.605884326194175	57.39584076453925	0	0	0
238	1	1	-11.783404849297355	-21.441413181418852	57.729647623773026	0	0	0
239	1	1	-12.219827251123183	-22.148262829085134	57.17296183917041	0	0	0
240	1	1	-12.656249652949011	-22.98379168430981	57.50676869840419	0	0	0
241	1	1	-13.09267205477484	-23.690641331976092	56.95008291380157	0	0	0
242	1	1	-13.529094456600667	-24.52617018720077	57.28388977303535	0	0	0
243	1	1	-13.965516858426495	-25.23301983486705	56.727203988432734	0	0	0
244	1	1	-14.401939260252323	-26.068548690091728	57.06101084766651	0	0	0
245	1	1	-14.838361662078151	-26.77539833775801	56.504325063063895	0	0	0
246	1	1	-15.27478406390398	-27.610927192982686	56.83813192229767	0	0	0
247	1	1	-15.711206465729807	-28.317776840648968	56.281446137695056	0	0	0
248	1	1	-16.147628867555635	-29.153305695873645	56.61525299692883	0	0	0
249	1	1	-16.58405126938146	-29.860155343539926	56.05856721232622	0	0	0
250	1	1	-17.020473671207288	-30.695684198764603	56.39237407155999	0	0	0
251	1	1	-17.456896073033114	-31.402533846430885	55.83568828695738	0	0	0
252	1	1	-17.89331847485894	-32.238062701655565	56.16949514619115	0	0	0
253	1	1	-18.329740876684767	-32.94491234932185	55.61280936158854	0	0	0
254	1	1	-18.766163278510593	-33.78044120454653	55.946616220822314	0	0	0
255	1	1	-19.20258568033642	-34.48729085221281	55.3899304362197	0	0	0
256	1	1	-19.639008082162245	-35.32281970743749	55.723737295453475	0	0	0
257	1	1	-20.07543048398807	-36.02966935510377	55.16705151085086	0	0	0
258	1	1	-20.511852885813898	-36.86519821032845	55.500858370084636	0	0	0
259	1	1	-20.948275287639724	-37.57204785799473	54.94417258548202	0	0	0
260	1	1	-21.38469768946555	-38.40757671321941	55.2779794447158	0	0	0
261	1	1	-21.821120091291377	-39.114426360885695	54.72129366011318	0	0	0
262	1	1	-22.257542493117203	-39.949955216110375	55.05510051934696	0	0	0
263	1	1	-22.69396489494303	-40.65680486377666	54.498414734744344	0	0	0
264	1	1	-23.130387296768856	-41.49233371900134	54.83222159397812	0	0	0
265	1	1	-23.566809698594682	-42.19918336666762	54.275535809375505	0	0	0
266	1	1	-24.003232100420508	-43.0347122218923	54.60934266860928	0	0	0
267	1	1	-24.439654502246334	-43.74156186955858	54.052656884006666	0	0	0
268	1	1	-24.87607690407216	-44.57709072478326	54.38646374324044	0	0	0
269	1	1	-25.312499305897987	-45.28394037244954	53.82977795863783	0	0	0
270	1	1	-25.748921707723813	-46.11946922767422	54.1635848178716	0	0	0
271	1	1	-26.18534410954964	-46.826318875340505	53.60689903326899	0	0	0
272	1	1	-26.621766511375466	-47.661847730565185	53.94070589250276	0	0	0
273	1	1	-27.058188913201292	-48.36869737823147	53.38402010790015	0	0	0
274	1	1	-27.494611315027118	-49.20422623345615	53.717826967133924	0	0	0
275	1	1	-27.931033716852944	-49.91107588112243	53.16114118253131	0	0	0
276	1	1	-28.36745611867877	-50.74660473634711	53.494948041765085	0	0	0
277	1	1	-28.803878520504597	-51.45345438401339	52.93826225716247	0	0	0
278	1	1	-29.240300922330423	-52.28898323923807	53.272069116396246	0	0	0
279	1	1	-29.67672332415625	-52.99583288690435	52.71538333179363	0	0	0
280	1	1	-30.113145725982076	-53.83136174212903	53.04919019102741	0	0	0
281	1	1	-30.549568127807902	-54.538211389795315	52.49250440642479	0	0	0
282	1	1	-31.323911524733617	-54.9260944514814	52.99244343680207	0	0	0
283	1	1	-32.09825492165933	-55.511980551787865	53.23146180660911	0	0	0
284	1	1	-32.87259831858505	-55.597927621717055	53.858363238102235	0	0	0
285	1	1	-33.64694171551076	-56.18381372202352	54.09738160790928	0	0	0
286	1	1	-34.42128511243648	-56.26976079195271	54.7242830394024	0	0	0
287	1	1	-35.195628509362194	-56.85564689225918	54.96330140920944	0	0	0
288	1	1	-35.96997190628791	-56.94159396218837	55.59020284070257	0	0	0
289	1	1	-36.744315303213625	-57.52748006249484	55.82922121050961	0	0	0
290	1	1	-37.51865870013934	-57.61342713242403	56.45612264200273	0	0	0
291	1	1	-38.293002097065056	-58.199313232730496	56.695141011809774	0	0	0
292	1	1	-39.06734549399077	-58.28526030265969	57.3220424433029	0	0	0
293	1	1	-39.84168889091649	-58.871146402966154	57.56106081310994	0	0	0
294	1	1	-40.6160322878422	-58.957093472895345	58.187962244603064	0	0	0
295	1	1	-41.39037568476792	-59.54297957320181	58.426980614410105	0	0	0
296	1	1	-42.16471908169363	-59.628926643131	59.05388204590323	0	0	0
297	1	1	-42.93906247861935	-60.21481274343747	59.29290041571027	0	0	0
298	1	1	-43.713405875545064	-60.30075981336666	59.919801847203395	0	0	0
299	1	1	-44.48774927247078	-60.88664591367313	60.15882021701044	0	0	0
300	1	1	-45.262092669396495	-60.97259298360232	60.78572164850356	0	0	0
301	1	1	-46.03643606632221	-61.558479083908786	61.0247400183106	0	0	0
302	1	1	-46.810779463247925	-61.644426153837976	61.651641449803726	0	0	0
303	1	1	-47.58512286017364	-62.230312254144444	61.89065981961077	0	0	0
304	1	1	-48.359466257099356	-62.316259324073634	62.51756125110389	0	0	0
305	1	1	-49.13380965402507	-62.9021454243801	62.756579620910934	0	0	0
306	1	1	-49.90815305095079	-62.98809249430929	63.38348105240406	0	0	0
307	1	1	-50.6824964478765	-63.57397859461576	63.6224994222111	0	0	0
308	1	1	-51.45683984480222	-63.65992566454495	64.24940085370422	0	0	0
309	1	1	-52.23118324172793	-64.24581176485142	64.48841922351126	0	0	0
310	1	1	-53.00552663865365	-64.33175883478062	65.11532065500438	0	0	0
311	1	1	-53.779870035579364	-64.91764493508708	65.35433902481142	0	0	0
312	1	1	-54.55421343250508	-65.00359200501627	65.98124045630455	0	0	0
313	1	1	-55.328556829430795	-65.58947810532274	66.22025882611159	0	0	0
314	1	1	-56.10290022635651	-65.67542517525193	66.84716025760471	0	0	0
315	1	1	-56.877243623282226	-66.2613112755584	67.08617862741175	0	0	0
316	1	1	-57.65158702020794	-66.34725834548759	67.71308005890488	0	0	0
317	1	1	-58.42593041713366	-66.93314444579406	67.95209842871192	0	0	0
318	1	1	-59.20027381405937	-67.01909151572325	68.57899986020504	0	0	0
319	1	1	-59.97461721098509	-67.60497761602971	68.81801823001209	0	0	0
320	1	1	-60.7489606079108	-67.6909246859589	69.44491966150521	0	0	0
321	1	1	-61.52330400483652	-68.27681078626537	69.68393803131225	0	0	0
322	1	1	-62.297647401762234	-68.36275785619456	70.31083946280538	0	0	0
323	1	1	-63.07199079868795	-68.94864395650103	70.54985783261242	0	0	0
324	1	1	-63.846334195613665	-69.03459102643022	71.17675926410554	0	0	0
325	1	1	-64.62067759253938	-69.62047712673669	71.41577763391258	0	0	0
326	1	1	-65.3950209894651	-69.70642419666588	72.04267906540571	0	0	0
327	1	1	-66.16936438639081	-70.29231029697235	72.28169743521275	0	0	0
328	1	1	-66.94370778331653	-70.37825736690154	72.90859886670587	0	0	0
329	1	1	-67.71805118024224	-70.964143467208	73.14761723651291	0	0	0
330	1	1	-68.49239457716796	-71.0500905371372	73.77451866800604	0	0	0
331	1	1	-69.26673797409367	-71.63597663744366	74.01353703781308	0	0	0
332	1	1	-70.04108137101939	-71.72192370737285	74.6404384693062	0	0	0
333	1	1	-70.8154247679451	-72.30780980767932	74.87945683911325	0	0	0
334	1	1	-71.58976816487082	-72.39375687760851	75.50635827060637	0	0	0
335	1	1	-72.36411156179653	-72.97964297791498	75.74537664041341	0	0	0
336	1	1	-73.13845495872225	-73.06559004784417	76.37227807190654	0	0	0
337	1	1	-73.91279835564796	-73.65147614815064	76.61129644171358	0	0	0
338	1	1	-74.68714175257368	-73.73742321807983	77.2381978732067	0	0	0
339	1	1	-75.4614851494994	-74.3233093183863	77.47721624301374	0	0	0
340	1	1	-76.23582854642511	-74.40925638831548	78.10411767450687	0	0	0
341	1	1	-77.01017194335083	-74.99514248862195	78.34313604431391	0	0	0
342	1	1	-77.78451534027654	-75.08108955855114	78.97003747580703	0	0	0
343	1	1	-78.55885873720226	-75.66697565885761	79.20905584561407	0	0	0
344	1	1	-79.33320213412797	-75.7529227287868	79.8359572771072	0	0	0
345	1	1	-80.10754553105369	-76.33880882909327	80.07497564691424	0	0	0
346	1	1	-80.8818889279794	-76.42475589902246	80.70187707840736	0	0	0
347	1	1	-81.65623232490512	-77.01064199932893	80.9408954482144	0	0	0
348	1	1	-82.43057572183083	-77.09658906925812	81.56779687970753	0	0	0
349	1	1	-83.20491911875655	-77.68247516956458	81.80681524951457	0	0	0
350	1	1	-83.97926251568227	-77.76842223949377	82.4337166810077	0	0	0
351	1	1	-84.75360591260798	-78.35430833980024	82.67273505081474	0	0	0
352	1	1	-29.88788007524866	-55.26046422328453	52.29120918636938	0	0	0
353	1	1	-29.226192022689418	-55.78530591501378	51.755755995396406	0	0	0
354	1	1	-28.564503970130176	-56.51144282679844	51.94255563791265	0	0	0
355	1	1	-27.902815917570933	-57.03628451852769	51.407102446939675	0	0	0
356	1	1	-27.24112786501169	-57.762421430312344	51.593902089455916	0	0	0
357	1	1	-26.57943981245245	-58.287263122041594	51.05844889848294	0	0	0
358	1	1	-25.917751759893207	-59.01340003382625	51.245248540999185	0	0	0
359	1	1	-25.256063707333965	-59.5382417255555	50.70979535002621	0	0	0
360	1	1	-24.594375654774723	-60.26437863734016	50.896594992542454	0	0	0
361	1	1	-23.93268760221548	-60.78922032906941	50.36114180156948	0	0	0
362	1	1	-23.27099954965624	-61.515357240854065	50.54794144408572	0	0	0
363	1	1	-22.609311497096996	-62.040198932583316	50.01248825311275	0	0	0
364	1	1	-21.947623444537754	-62.76633584436797	50.19928789562899	0	0	0
365	1	1	-21.285935391978512	-63.29117753609722	49.66383470465602	0	0	0
366	1	1	-20.62424733941927	-64.01731444788189	49.85063434717226	0	0	0
367	1	1	-19.962559286860028	-64.54215613961114	49.31518115619929	0	0	0
368	1	1	-19.300871234300786	-65.2682930513958	49.50198079871553	0	0	0
369	1	1	-18.639183181741544	-65.79313474312505	48.966527607742556	0	0	0
370	1	1	-17.9774951291823	-66.51927165490972	49.1533272502588	0	0	0
371	1	1	-17.31580707662306	-67.04411334663897	48.617874059285825	0	0	0
372	1	1	-16.654119024063817	-67.77025025842363	48.804673701802066	0	0	0
373	1	1	-15.992430971504575	-68.29509195015288	48.26922051082909	0	0	0
374	1	1	-15.330742918945333	-69.02122886193754	48.456020153345335	0	0	0
375	1	1	-14.669054866386091	-69.5460705536668	47.92056696237236	0	0	0
376	1	1	-14.007366813826849	-70.27220746545146	48.107366604888604	0	0	0
377	1	1	-13.345678761267607	-70.79704915718071	47.57191341391563	0	0	0
378	1	1	-12.683990708708365	-71.52318606896537	47.75871305643187	0	0	0
379	1	1	-12.022302656149122	-72.04802776069462	47.2232598654589	0	0	0
380	1	1	-11.36061460358988	-72.77416467247929	47.41005950797514	0	0	0
381	1	1	-10.698926551030638	-73.29900636420854	46.87460631700217	0	0	0
382	1	1	-10.037238498471396	-74.0251432759932	47.06140595951841	0	0	0
383	1	1	-9.375550445912154	-74.54998496772245	46.52595276854544	0	0	0
384	1	1	-8.713862393352912	-75.27612187950712	46.71275241106168	0	0	0
385	1	1	-8.05217434079367	-75.80096357123637	46.177299220088706	0	0	0
386	1	1	-7.3904862882344275	-76.52710048302103	46.36409886260495	0	0	0
387	1	1	-6.728798235675185	-77.05194217475028	45.828645671631975	0	0	0
388	1	1	-6.067110183115943	-77.77807908653494	46.01544531414822	0	0	0
389	1	1	-5.405422130556701	-78.3029207782642	45.47999212317524	0	0	0
390	1	1	-4.743734077997459	-79.02905769004886	45.666791765691485	0	0	0
391	1	1	-4.082046025438217	-79.55389938177811	45.13133857471851	0	0	0
392	1	1	-3.420357972878975	-80.28003629356277	45.318138217234754	0	0	0
393	1	1	-2.7586699203197327	-80.80487798529202	44.78268502626178	0	0	0
394	1	1	-2.0969818677604906	-81.53101489707669	44.96948466877802	0	0	0
395	1	1	-1.4352938152012484	-82.05585658880594	44.43403147780505	0	0	0
396	1	1	-0.7736057626420063	-82.7819935005906	44.62083112032129	0	0	0
397	1	1	-0.11191771008276408	-83.30683519231985	44.08537792934832	0	0	0
398	1	1	0.549770342476478	-84.03297210410452	44.27217757186456	0	0	0
399	1	1	1.2114583950357203	-84.55781379583377	43.73672438089159	0	0	0
400	1	1	1.8731464475949624	-85.28395070761843	43.92352402340783	0	0	0
401	1	1	2.5348345001542048	-85.80879239934768	43.388070832434856	0	0	0
402	1	1	3.196522552713447	-86.53492931113234	43.5748704749511	0	0	0
403	1	1	3.858210605272689	-87.0597710028616	43.039417283978125	0	0	0
404	1	1	4.519898657831931	-87.78590791464626	43.22621692649437	0	0	0
405	1	1	5.181586710391173	-88.31074960637551	42.690763735521394	0	0	0
406	1	1	5.843274762950415	-89.03688651816017	42.877563378037635	0	0	0
407	1	1	6.504962815509657	-89.56172820988942	42.34211018706466	0	0	0
408	1	1	7.166650868068899	-90.28786512167409	42.528909829580904	0	0	0
409	1	1	7.828338920628141	-90.81270681340334	41.99345663860793	0	0	0
410	1	1	8.490026973187383	-91.538843725188	42.18025628112417	0	0	0
411	1	1	9.151715025746626	-92.06368541691725	41.6448030901512	0	0	0
412	1	1	9.813403078305868	-92.78982232870192	41.83160273266744	0	0	0
413	1	1	10.47509113086511	-93.31466402043117	41.29614954169447	0	0	0
414	1	1	11.136779183424352	-94.04080093221583	41.48294918421071	0	0	0
415	1	1	11.798467235983594	-94.56564262394508	40.94749599323774	0	0	0
416	1	1	12.460155288542836	-95.29177953572975	41.13429563575398	0	0	0
417	1	1	13.121843341102078	-95.816621227459	40.598842444781006	0	0	0
418	1	1	13.78353139366132	-96.54275813924366	40.78564208729725	0	0	0
419	1	1	14.445219446220563	-97.06759983097291	40.250188896324275	0	0	0
420	1	1	15.106907498779805	-97.79373674275757	40.43698853884052	0	0	0
421	1	1	15.768595551339047	-98.31857843448682	39.901535347867544	0	0	0
422	1	1	-30.873955157199635	-54.13592927713396	51.63638399608807	0	0	0
423	1	1	-31.19834218659137	-53.359482542912794	51.09610302836879	0	0	0
424	1	1	-31.5227292159831	-53.43915621902835	50.15353994798815	0	0	0
425	1	1	-31.847116245374835	-52.66270948480718	49.61325898026887	0	0	0
426	1	1	-32.17150327476657	-52.742383160922735	48.67069589988823	0	0	0
427	1	1	-32.49589030415831	-51.96593642670157	48.13041493216895	0	0	0
428	1	1	-32.820277333550045	-52.04561010281712	47.18785185178831	0	0	0
429	1	1	-33.14466436294178	-51.269163368595954	46.647570884069026	0	0	0
430	1	1	-33.46905139233352	-51.34883704471151	45.70500780368839	0	0	0
431	1	1	-33.793438421725256	-50.57239031049034	45.164726835969105	0	0	0
432	1	1	-34.11782545111699	-50.652063986605896	44.22216375558847	0	0	0
433	1	1	-34.44221248050873	-49.87561725238473	43.681882787869185	0	0	0
434	1	1	-34.766599509900466	-49.95529092850028	42.73931970748855	0	0	0
435	1	1	-35.0909865392922	-49.178844194279115	42.199038739769264	0	0	0
436	1	1	-35.41537356868394	-49.25851787039467	41.25647565938863	0	0	0
437	1	1	-35.73976059807568	-48.4820711361735	40.716194691669344	0	0	0
438	1	1	-36.06414762746741	-48.56174481228906	39.77363161128871	0	0	0
439	1	1	-36.38853465685915	-47.78529807806789	39.23335064356942	0	0	0
440	1	1	-36.71292168625089	-47.86497175418344	38.290787563188786	0	0	0
441	1	1	-37.037308715642624	-47.088525019962276	37.7505065954695	0	0	0
442	1	1	-37.36169574503436	-47.16819869607783	36.807943515088866	0	0	0
443	1	1	-37.6860827744261	-46.39175196185666	36.26766254736958	0	0	0
444	1	1	-38.010469803817834	-46.47142563797222	35.325099466988945	0	0	0
445	1	1	-38.33485683320957	-45.69497890375105	34.78481849926966	0	0	0
446	1	1	-38.65924386260131	-45.774652579866604	33.842255418889025	0	0	0
447	1	1	-38.983630891993045	-44.99820584564544	33.30197445116974	0	0	0
448	1	1	-39.30801792138478	-45.07787952176099	32.359411370789104	0	0	0