bb360nuc3bl90bn4d30tot900V2

901 atoms
900 bonds
908 angles

1 atom types
1 bond types
1 angle types

-1000 1000 xlo xhi
-1000 1000 ylo yhi
-1000 1000 zlo zhi

Masses

1 1

Atoms

1	1	1	0.0	0.0	0.0	0	0	0
2	1	1	0.0	0.0	1.0	0	0	0
3	1	1	0.0	-0.49999999999999994	1.8660254037844388	0	0	0
4	1	1	0.0	0.0	2.7320508075688776	0	0	0
5	1	1	0.0	-0.49999999999999994	3.5980762113533165	0	0	0
6	1	1	0.0	0.0	4.464101615137755	0	0	0
7	1	1	0.0	-0.49999999999999994	5.330127018922194	0	0	0
8	1	1	0.0	0.0	6.196152422706632	0	0	0
9	1	1	0.0	-0.49999999999999994	7.06217782649107	0	0	0
10	1	1	0.0	0.0	7.928203230275509	0	0	0
11	1	1	0.0	-0.49999999999999994	8.794228634059948	0	0	0
12	1	1	0.0	0.0	9.660254037844387	0	0	0
13	1	1	0.0	-0.49999999999999994	10.526279441628827	0	0	0
14	1	1	0.0	0.0	11.392304845413266	0	0	0
15	1	1	0.0	-0.49999999999999994	12.258330249197705	0	0	0
16	1	1	0.0	0.0	13.124355652982144	0	0	0
17	1	1	0.0	-0.49999999999999994	13.990381056766584	0	0	0
18	1	1	0.0	0.0	14.856406460551023	0	0	0
19	1	1	0.0	-0.49999999999999994	15.722431864335462	0	0	0
20	1	1	0.0	0.0	16.5884572681199	0	0	0
21	1	1	0.0	-0.49999999999999994	17.454482671904337	0	0	0
22	1	1	0.0	0.0	18.320508075688775	0	0	0
23	1	1	0.0	-0.49999999999999994	19.186533479473212	0	0	0
24	1	1	0.0	0.0	20.05255888325765	0	0	0
25	1	1	0.0	-0.49999999999999994	20.918584287042087	0	0	0
26	1	1	0.0	0.0	21.784609690826525	0	0	0
27	1	1	0.0	-0.49999999999999994	22.650635094610962	0	0	0
28	1	1	0.0	0.0	23.5166604983954	0	0	0
29	1	1	0.0	-0.49999999999999994	24.382685902179837	0	0	0
30	1	1	0.0	0.0	25.248711305964274	0	0	0
31	1	1	0.0	-0.49999999999999994	26.114736709748712	0	0	0
32	1	1	0.0	0.0	26.98076211353315	0	0	0
33	1	1	0.0	-0.49999999999999994	27.846787517317587	0	0	0
34	1	1	0.0	0.0	28.712812921102024	0	0	0
35	1	1	0.0	-0.49999999999999994	29.578838324886462	0	0	0
36	1	1	0.0	0.0	30.4448637286709	0	0	0
37	1	1	0.0	-0.49999999999999994	31.310889132455337	0	0	0
38	1	1	0.0	0.0	32.17691453623978	0	0	0
39	1	1	0.0	-0.49999999999999994	33.04293994002422	0	0	0
40	1	1	0.0	0.0	33.90896534380866	0	0	0
41	1	1	0.0	-0.49999999999999994	34.7749907475931	0	0	0
42	1	1	0.0	0.0	35.64101615137754	0	0	0
43	1	1	0.0	-0.49999999999999994	36.50704155516198	0	0	0
44	1	1	0.0	0.0	37.373066958946424	0	0	0
45	1	1	0.0	-0.49999999999999994	38.239092362730865	0	0	0
46	1	1	0.0	0.0	39.105117766515306	0	0	0
47	1	1	0.0	-0.49999999999999994	39.97114317029975	0	0	0
48	1	1	0.0	0.0	40.83716857408419	0	0	0
49	1	1	0.0	-0.49999999999999994	41.70319397786863	0	0	0
50	1	1	0.0	0.0	42.56921938165307	0	0	0
51	1	1	0.0	-0.49999999999999994	43.43524478543751	0	0	0
52	1	1	0.0	0.0	44.30127018922195	0	0	0
53	1	1	0.0	-0.49999999999999994	45.16729559300639	0	0	0
54	1	1	0.0	0.0	46.033320996790835	0	0	0
55	1	1	0.0	-0.49999999999999994	46.899346400575276	0	0	0
56	1	1	0.0	0.0	47.76537180435972	0	0	0
57	1	1	0.0	-0.49999999999999994	48.63139720814416	0	0	0
58	1	1	0.0	0.0	49.4974226119286	0	0	0
59	1	1	0.0	-0.49999999999999994	50.36344801571304	0	0	0
60	1	1	0.0	0.0	51.22947341949748	0	0	0
61	1	1	0.0	-0.49999999999999994	52.09549882328192	0	0	0
62	1	1	0.0	0.0	52.96152422706636	0	0	0
63	1	1	0.0	-0.49999999999999994	53.827549630850804	0	0	0
64	1	1	0.0	0.0	54.693575034635245	0	0	0
65	1	1	0.0	-0.49999999999999994	55.559600438419686	0	0	0
66	1	1	0.0	0.0	56.42562584220413	0	0	0
67	1	1	0.0	-0.49999999999999994	57.29165124598857	0	0	0
68	1	1	0.0	0.0	58.15767664977301	0	0	0
69	1	1	0.0	-0.49999999999999994	59.02370205355745	0	0	0
70	1	1	0.0	0.0	59.88972745734189	0	0	0
71	1	1	0.0	-0.49999999999999994	60.75575286112633	0	0	0
72	1	1	0.0	0.0	61.62177826491077	0	0	0
73	1	1	0.0	-0.49999999999999994	62.487803668695214	0	0	0
74	1	1	0.0	0.0	63.353829072479655	0	0	0
75	1	1	0.0	-0.49999999999999994	64.21985447626409	0	0	0
76	1	1	0.0	0.0	65.08587988004852	0	0	0
77	1	1	0.0	-0.49999999999999994	65.95190528383296	0	0	0
78	1	1	0.0	0.0	66.81793068761739	0	0	0
79	1	1	0.0	-0.49999999999999994	67.68395609140183	0	0	0
80	1	1	0.0	0.0	68.54998149518626	0	0	0
81	1	1	0.0	-0.49999999999999994	69.41600689897069	0	0	0
82	1	1	0.0	0.0	70.28203230275513	0	0	0
83	1	1	0.0	-0.49999999999999994	71.14805770653956	0	0	0
84	1	1	0.0	0.0	72.014083110324	0	0	0
85	1	1	0.0	-0.49999999999999994	72.88010851410843	0	0	0
86	1	1	0.0	0.0	73.74613391789286	0	0	0
87	1	1	0.0	-0.49999999999999994	74.6121593216773	0	0	0
88	1	1	0.0	0.0	75.47818472546173	0	0	0
89	1	1	0.0	-0.49999999999999994	76.34421012924616	0	0	0
90	1	1	0.0	0.0	77.2102355330306	0	0	0
91	1	1	0.0	-0.49999999999999994	78.07626093681503	0	0	0
92	1	1	-0.5032913897893476	0.023352369539693607	78.76386552832173	0	0	0
93	1	1	-1.0065827795786972	0.13278652093850318	79.6210247570952	0	0	0
94	1	1	-1.5098741693680469	0.929825263844009	79.95483161632897	0	0	0
95	1	1	-2.0131655591573967	1.0392594152428185	80.81199084510244	0	0	0
96	1	1	-2.5164569489467463	1.8362981581483244	81.14579770433622	0	0	0
97	1	1	-3.019748338736096	1.945732309547134	82.00295693310969	0	0	0
98	1	1	-3.5230397285254456	2.74277105245264	82.33676379234346	0	0	0
99	1	1	-4.026331118314795	2.8522052038514496	83.19392302111693	0	0	0
100	1	1	-4.529622508104145	3.6492439467569553	83.5277298803507	0	0	0
101	1	1	-5.032913897893495	3.758678098155765	84.38488910912417	0	0	0
102	1	1	-5.536205287682845	4.555716841061271	84.71869596835795	0	0	0
103	1	1	-6.039496677472195	4.66515099246008	85.57585519713142	0	0	0
104	1	1	-6.5427880672615455	5.462189735365586	85.90966205636519	0	0	0
105	1	1	-7.0460794570508956	5.571623886764395	86.76682128513866	0	0	0
106	1	1	-7.549370846840246	6.368662629669901	87.10062814437244	0	0	0
107	1	1	-8.052662236629596	6.47809678106871	87.9577873731459	0	0	0
108	1	1	-8.555953626418946	7.275135523974216	88.29159423237968	0	0	0
109	1	1	-9.059245016208296	7.384569675373025	89.14875346115315	0	0	0
110	1	1	-9.562536405997646	8.18160841827853	89.48256032038692	0	0	0
111	1	1	-10.065827795786996	8.29104256967734	90.33971954916039	0	0	0
112	1	1	-10.569119185576346	9.088081312582847	90.67352640839417	0	0	0
113	1	1	-11.072410575365696	9.197515463981658	91.53068563716764	0	0	0
114	1	1	-11.575701965155046	9.994554206887164	91.86449249640141	0	0	0
115	1	1	-12.078993354944396	10.103988358285974	92.72165172517488	0	0	0
116	1	1	-12.582284744733746	10.901027101191481	93.05545858440865	0	0	0
117	1	1	-13.085576134523096	11.010461252590291	93.91261781318212	0	0	0
118	1	1	-13.588867524312446	11.807499995495798	94.2464246724159	0	0	0
119	1	1	-14.092158914101796	11.916934146894608	95.10358390118937	0	0	0
120	1	1	-14.595450303891147	12.713972889800115	95.43739076042314	0	0	0
121	1	1	-15.098741693680497	12.823407041198925	96.29454998919661	0	0	0
122	1	1	-15.602033083469847	13.620445784104431	96.62835684843039	0	0	0
123	1	1	-16.105324473259195	13.729879935503241	97.48551607720385	0	0	0
124	1	1	-16.608615863048545	14.526918678408748	97.81932293643763	0	0	0
125	1	1	-17.111907252837895	14.636352829807558	98.6764821652111	0	0	0
126	1	1	-17.615198642627245	15.433391572713065	99.01028902444487	0	0	0
127	1	1	-18.118490032416595	15.542825724111875	99.86744825321834	0	0	0
128	1	1	-18.621781422205945	16.33986446701738	100.20125511245212	0	0	0
129	1	1	-19.125072811995295	16.44929861841619	101.05841434122559	0	0	0
130	1	1	-19.628364201784645	17.246337361321697	101.39222120045936	0	0	0
131	1	1	-20.131655591573995	17.355771512720505	102.24938042923283	0	0	0
132	1	1	-20.634946981363345	18.15281025562601	102.5831872884666	0	0	0
133	1	1	-21.138238371152696	18.26224440702482	103.44034651724007	0	0	0
134	1	1	-21.641529760942046	19.059283149930327	103.77415337647385	0	0	0
135	1	1	-22.144821150731396	19.168717301329135	104.63131260524732	0	0	0
136	1	1	-22.648112540520746	19.96575604423464	104.96511946448109	0	0	0
137	1	1	-23.151403930310096	20.07519019563345	105.82227869325456	0	0	0
138	1	1	-23.654695320099446	20.872228938538957	106.15608555248834	0	0	0
139	1	1	-24.157986709888796	20.981663089937765	107.0132447812618	0	0	0
140	1	1	-24.661278099678146	21.77870183284327	107.34705164049558	0	0	0
141	1	1	-25.164569489467496	21.88813598424208	108.20421086926905	0	0	0
142	1	1	-25.667860879256846	22.685174727147587	108.53801772850282	0	0	0
143	1	1	-26.171152269046196	22.794608878546395	109.39517695727629	0	0	0
144	1	1	-26.674443658835546	23.5916476214519	109.72898381651007	0	0	0
145	1	1	-27.177735048624896	23.70108177285071	110.58614304528354	0	0	0
146	1	1	-27.681026438414246	24.498120515756217	110.91994990451731	0	0	0
147	1	1	-28.184317828203596	24.607554667155025	111.77710913329078	0	0	0
148	1	1	-28.687609217992946	25.40459341006053	112.11091599252455	0	0	0
149	1	1	-29.190900607782297	25.51402756145934	112.96807522129802	0	0	0
150	1	1	-29.694191997571647	26.311066304364847	113.3018820805318	0	0	0
151	1	1	-30.197483387360997	26.420500455763655	114.15904130930527	0	0	0
152	1	1	-30.700774777150347	27.21753919866916	114.49284816853904	0	0	0
153	1	1	-31.204066166939697	27.32697335006797	115.35000739731251	0	0	0
154	1	1	-31.707357556729047	28.124012092973476	115.68381425654628	0	0	0
155	1	1	-32.2106489465184	28.233446244372285	116.54097348531975	0	0	0
156	1	1	-32.71394033630774	29.03048498727779	116.87478034455353	0	0	0
157	1	1	-33.21723172609709	29.1399191386766	117.731939573327	0	0	0
158	1	1	-33.72052311588644	29.936957881582106	118.06574643256077	0	0	0
159	1	1	-34.22381450567578	30.046392032980915	118.92290566133424	0	0	0
160	1	1	-34.72710589546513	30.84343077588642	119.25671252056802	0	0	0
161	1	1	-35.230397285254476	30.95286492728523	120.11387174934148	0	0	0
162	1	1	-35.73368867504382	31.749903670190736	120.44767860857526	0	0	0
163	1	1	-36.23698006483317	31.859337821589545	121.30483783734873	0	0	0
164	1	1	-36.740271454622516	32.65637656449505	121.6386446965825	0	0	0
165	1	1	-37.24356284441186	32.765810715893856	122.49580392535597	0	0	0
166	1	1	-37.74685423420121	33.56284945879936	122.82961078458975	0	0	0
167	1	1	-38.250145623990555	33.67228361019817	123.68677001336322	0	0	0
168	1	1	-38.7534370137799	34.46932235310368	124.02057687259699	0	0	0
169	1	1	-39.25672840356925	34.578756504502486	124.87773610137046	0	0	0
170	1	1	-39.760019793358595	35.37579524740799	125.21154296060423	0	0	0
171	1	1	-40.26331118314794	35.4852293988068	126.0687021893777	0	0	0
172	1	1	-40.76660257293729	36.28226814171231	126.40250904861148	0	0	0
173	1	1	-41.269893962726634	36.391702293111116	127.25966827738495	0	0	0
174	1	1	-41.77318535251598	37.18874103601662	127.59347513661872	0	0	0
175	1	1	-42.27647674230533	37.29817518741543	128.45063436539218	0	0	0
176	1	1	-42.779768132094674	38.09521393032094	128.78444122462594	0	0	0
177	1	1	-43.28305952188402	38.204648081719746	129.6416004533994	0	0	0
178	1	1	-43.78635091167337	39.00168682462525	129.97540731263317	0	0	0
179	1	1	-44.28964230146271	39.11112097602406	130.83256654140663	0	0	0
180	1	1	-44.79293369125206	39.90815971892957	131.1663734006404	0	0	0
181	1	1	-45.296225081041406	40.017593870328376	132.02353262941386	0	0	0
182	1	1	0.9419014940512536	-0.6345627868531574	78.38401803567437	0	0	0
183	1	1	1.8838029881025107	-0.9049761281016957	78.58326210805498	0	0	0
184	1	1	2.825704482153768	-0.8676323704908884	78.91706896728876	0	0	0
185	1	1	3.7676059762050254	-1.1380457117394267	79.11631303966936	0	0	0
186	1	1	4.709507470256282	-1.1007019541286194	79.45011989890314	0	0	0
187	1	1	5.65140896430754	-1.3711152953771577	79.64936397128375	0	0	0
188	1	1	6.593310458358797	-1.3337715377663504	79.98317083051752	0	0	0
189	1	1	7.535211952410054	-1.6041848790148887	80.18241490289813	0	0	0
190	1	1	8.477113446461312	-1.5668411214040814	80.5162217621319	0	0	0
191	1	1	9.419014940512568	-1.8372544626526197	80.71546583451251	0	0	0
192	1	1	10.360916434563824	-1.7999107050418124	81.04927269374629	0	0	0
193	1	1	11.302817928615081	-2.0703240462903505	81.2485167661269	0	0	0
194	1	1	12.244719422666337	-2.032980288679543	81.58232362536067	0	0	0
195	1	1	13.186620916717594	-2.3033936299280815	81.78156769774128	0	0	0
196	1	1	14.12852241076885	-2.266049872317274	82.11537455697506	0	0	0
197	1	1	15.070423904820107	-2.5364632135658125	82.31461862935566	0	0	0
198	1	1	16.012325398871365	-2.499119455955005	82.64842548858944	0	0	0
199	1	1	16.954226892922623	-2.7695327972035435	82.84766956097005	0	0	0
200	1	1	17.89612838697388	-2.732189039592736	83.18147642020382	0	0	0
201	1	1	18.83802988102514	-3.0026023808412745	83.38072049258443	0	0	0
202	1	1	19.779931375076398	-2.965258623230467	83.7145273518182	0	0	0
203	1	1	20.721832869127656	-3.2356719644790055	83.91377142419881	0	0	0
204	1	1	21.663734363178914	-3.198328206868198	84.24757828343259	0	0	0
205	1	1	22.605635857230173	-3.4687415481167365	84.4468223558132	0	0	0
206	1	1	23.54753735128143	-3.431397790505929	84.78062921504697	0	0	0
207	1	1	24.48943884533269	-3.7018111317544675	84.97987328742758	0	0	0
208	1	1	25.431340339383947	-3.66446737414366	85.31368014666135	0	0	0
209	1	1	26.373241833435205	-3.9348807153921985	85.51292421904196	0	0	0
210	1	1	27.315143327486464	-3.897536957781391	85.84673107827574	0	0	0
211	1	1	28.257044821537722	-4.167950299029929	86.04597515065635	0	0	0
212	1	1	29.19894631558898	-4.130606541419121	86.37978200989012	0	0	0
213	1	1	30.14084780964024	-4.40101988266766	86.57902608227073	0	0	0
214	1	1	31.082749303691497	-4.363676125056852	86.9128329415045	0	0	0
215	1	1	32.02465079774275	-4.63408946630539	87.11207701388511	0	0	0
216	1	1	32.96655229179401	-4.596745708694582	87.44588387311889	0	0	0
217	1	1	33.90845378584527	-4.867159049943121	87.6451279454995	0	0	0
218	1	1	34.850355279896526	-4.829815292332313	87.97893480473327	0	0	0
219	1	1	35.792256773947784	-5.100228633580851	88.17817887711388	0	0	0
220	1	1	36.73415826799904	-5.0628848759700436	88.51198573634765	0	0	0
221	1	1	37.6760597620503	-5.333298217218582	88.71122980872826	0	0	0
222	1	1	38.61796125610156	-5.295954459607774	89.04503666796204	0	0	0
223	1	1	39.55986275015282	-5.566367800856312	89.24428074034265	0	0	0
224	1	1	40.501764244204075	-5.529024043245505	89.57808759957642	0	0	0
225	1	1	41.44366573825533	-5.799437384494043	89.77733167195703	0	0	0
226	1	1	42.38556723230659	-5.762093626883235	90.1111385311908	0	0	0
227	1	1	43.32746872635785	-6.032506968131774	90.31038260357141	0	0	0
228	1	1	44.26937022040911	-5.995163210520966	90.64418946280519	0	0	0
229	1	1	45.211271714460366	-6.265576551769504	90.8434335351858	0	0	0
230	1	1	46.153173208511625	-6.228232794158696	91.17724039441957	0	0	0
231	1	1	47.09507470256288	-6.498646135407235	91.37648446680018	0	0	0
232	1	1	48.03697619661414	-6.461302377796427	91.71029132603395	0	0	0
233	1	1	48.9788776906654	-6.731715719044965	91.90953539841456	0	0	0
234	1	1	49.92077918471666	-6.6943719614341575	92.24334225764834	0	0	0
235	1	1	50.862680678767916	-6.964785302682696	92.44258633002894	0	0	0
236	1	1	51.804582172819174	-6.927441545071888	92.77639318926272	0	0	0
237	1	1	52.74648366687043	-7.197854886320426	92.97563726164333	0	0	0
238	1	1	53.68838516092169	-7.160511128709619	93.3094441208771	0	0	0
239	1	1	54.63028665497295	-7.430924469958157	93.50868819325771	0	0	0
240	1	1	55.57218814902421	-7.393580712347349	93.84249505249149	0	0	0
241	1	1	56.514089643075465	-7.6639940535958875	94.0417391248721	0	0	0
242	1	1	57.45599113712672	-7.62665029598508	94.37554598410587	0	0	0
243	1	1	58.39789263117798	-7.897063637233618	94.57479005648648	0	0	0
244	1	1	59.33979412522924	-7.85971987962281	94.90859691572025	0	0	0
245	1	1	60.2816956192805	-8.130133220871349	95.10784098810086	0	0	0
246	1	1	61.223597113331756	-8.09278946326054	95.44164784733464	0	0	0
247	1	1	62.165498607383014	-8.36320280450908	95.64089191971524	0	0	0
248	1	1	63.10740010143427	-8.325859046898271	95.97469877894902	0	0	0
249	1	1	64.04930159548553	-8.59627238814681	96.17394285132963	0	0	0
250	1	1	64.99120308953678	-8.558928630536002	96.5077497105634	0	0	0
251	1	1	65.93310458358803	-8.82934197178454	96.70699378294401	0	0	0
252	1	1	66.87500607763928	-8.791998214173733	97.04080064217779	0	0	0
253	1	1	67.81690757169054	-9.06241155542227	97.2400447145584	0	0	0
254	1	1	68.75880906574179	-9.025067797811463	97.57385157379217	0	0	0
255	1	1	69.70071055979304	-9.295481139060001	97.77309564617278	0	0	0
256	1	1	70.64261205384429	-9.258137381449194	98.10690250540655	0	0	0
257	1	1	71.58451354789554	-9.528550722697732	98.30614657778716	0	0	0
258	1	1	72.52641504194679	-9.491206965086924	98.63995343702094	0	0	0
259	1	1	73.46831653599804	-9.761620306335463	98.83919750940154	0	0	0
260	1	1	74.4102180300493	-9.724276548724655	99.17300436863532	0	0	0
261	1	1	75.35211952410054	-9.994689889973193	99.37224844101593	0	0	0
262	1	1	76.2940210181518	-9.957346132362385	99.7060553002497	0	0	0
263	1	1	77.23592251220305	-10.227759473610924	99.90529937263031	0	0	0
264	1	1	78.1778240062543	-10.190415716000116	100.23910623186408	0	0	0
265	1	1	79.11972550030555	-10.460829057248654	100.4383503042447	0	0	0
266	1	1	80.0616269943568	-10.423485299637846	100.77215716347847	0	0	0
267	1	1	81.00352848840805	-10.693898640886385	100.97140123585908	0	0	0
268	1	1	81.9454299824593	-10.656554883275577	101.30520809509285	0	0	0
269	1	1	82.88733147651055	-10.926968224524115	101.50445216747346	0	0	0
270	1	1	83.8292329705618	-10.889624466913308	101.83825902670723	0	0	0
271	1	1	84.77113446461306	-11.160037808161846	102.03750309908784	0	0	0
272	1	1	-0.4386101042618912	-1.3894998715371925	77.94815490661081	0	0	0
273	1	1	-0.8772202085237839	-2.09577634184929	77.39246189430739	0	0	0
274	1	1	-1.3158303127856767	-2.930158842365605	77.72626875354116	0	0	0
275	1	1	-1.7544404170475696	-3.6364353126777025	77.17057574123774	0	0	0
276	1	1	-2.193050521309462	-4.470817813194017	77.50438260047152	0	0	0
277	1	1	-2.631660625571355	-5.177094283506115	76.9486895881681	0	0	0
278	1	1	-3.0702707298332474	-6.01147678402243	77.28249644740187	0	0	0
279	1	1	-3.50888083409514	-6.717753254334528	76.72680343509845	0	0	0
280	1	1	-3.9474909383570327	-7.552135754850843	77.06061029433222	0	0	0
281	1	1	-4.386101042618925	-8.25841222516294	76.5049172820288	0	0	0
282	1	1	-4.824711146880818	-9.092794725679255	76.83872414126257	0	0	0
283	1	1	-5.263321251142711	-9.799071195991353	76.28303112895915	0	0	0
284	1	1	-5.7019313554046045	-10.633453696507667	76.61683798819293	0	0	0
285	1	1	-6.140541459666498	-11.339730166819765	76.0611449758895	0	0	0
286	1	1	-6.579151563928391	-12.174112667336079	76.39495183512328	0	0	0
287	1	1	-7.017761668190284	-12.880389137648177	75.83925882281986	0	0	0
288	1	1	-7.456371772452177	-13.71477163816449	76.17306568205363	0	0	0
289	1	1	-7.89498187671407	-14.421048108476588	75.61737266975021	0	0	0
290	1	1	-8.333591980975962	-15.255430608992903	75.95117952898399	0	0	0
291	1	1	-8.772202085237854	-15.961707079305	75.39548651668056	0	0	0
292	1	1	-9.210812189499746	-16.796089579821317	75.72929337591434	0	0	0
293	1	1	-9.649422293761639	-17.502366050133414	75.17360036361092	0	0	0
294	1	1	-10.08803239802353	-18.33674855064973	75.50740722284469	0	0	0
295	1	1	-10.526642502285423	-19.043025020961828	74.95171421054127	0	0	0
296	1	1	-10.965252606547315	-19.877407521478144	75.28552106977504	0	0	0
297	1	1	-11.403862710809207	-20.58368399179024	74.72982805747162	0	0	0
298	1	1	-11.8424728150711	-21.418066492306558	75.0636349167054	0	0	0
299	1	1	-12.281082919332992	-22.124342962618655	74.50794190440197	0	0	0
300	1	1	-12.719693023594884	-22.95872546313497	74.84174876363575	0	0	0
301	1	1	-13.158303127856776	-23.66500193344707	74.28605575133233	0	0	0
302	1	1	-13.596913232118668	-24.499384433963385	74.6198626105661	0	0	0
303	1	1	-14.03552333638056	-25.205660904275483	74.06416959826268	0	0	0
304	1	1	-14.474133440642452	-26.0400434047918	74.39797645749645	0	0	0
305	1	1	-14.912743544904345	-26.746319875103897	73.84228344519303	0	0	0
306	1	1	-15.351353649166237	-27.580702375620213	74.17609030442681	0	0	0
307	1	1	-15.789963753428129	-28.28697884593231	73.62039729212339	0	0	0
308	1	1	-16.228573857690023	-29.121361346448627	73.95420415135716	0	0	0
309	1	1	-16.667183961951917	-29.827637816760724	73.39851113905374	0	0	0
310	1	1	-17.10579406621381	-30.66202031727704	73.73231799828751	0	0	0
311	1	1	-17.544404170475705	-31.368296787589138	73.17662498598409	0	0	0
312	1	1	-17.9830142747376	-32.20267928810545	73.51043184521787	0	0	0
313	1	1	-18.421624378999493	-32.90895575841755	72.95473883291444	0	0	0
314	1	1	-18.860234483261387	-33.74333825893386	73.28854569214822	0	0	0
315	1	1	-19.29884458752328	-34.44961472924596	72.7328526798448	0	0	0
316	1	1	-19.737454691785175	-35.28399722976227	73.06665953907857	0	0	0
317	1	1	-20.17606479604707	-35.99027370007437	72.51096652677515	0	0	0
318	1	1	-20.614674900308962	-36.82465620059068	72.84477338600892	0	0	0
319	1	1	-21.053285004570856	-37.53093267090278	72.2890803737055	0	0	0
320	1	1	-21.49189510883275	-38.36531517141909	72.62288723293928	0	0	0
321	1	1	-21.930505213094644	-39.07159164173119	72.06719422063586	0	0	0
322	1	1	-22.36911531735654	-39.9059741422475	72.40100107986963	0	0	0
323	1	1	-22.807725421618432	-40.6122506125596	71.84530806756621	0	0	0
324	1	1	-23.246335525880326	-41.44663311307591	72.17911492679998	0	0	0
325	1	1	-23.68494563014222	-42.15290958338801	71.62342191449656	0	0	0
326	1	1	-24.123555734404114	-42.98729208390432	71.95722877373034	0	0	0
327	1	1	-24.562165838666008	-43.69356855421642	71.40153576142691	0	0	0
328	1	1	-25.000775942927902	-44.52795105473273	71.73534262066069	0	0	0
329	1	1	-25.439386047189796	-45.23422752504483	71.17964960835727	0	0	0
330	1	1	-25.87799615145169	-46.06861002556114	71.51345646759104	0	0	0
331	1	1	-26.316606255713584	-46.77488649587324	70.95776345528762	0	0	0
332	1	1	-26.755216359975478	-47.60926899638955	71.2915703145214	0	0	0
333	1	1	-27.19382646423737	-48.31554546670165	70.73587730221797	0	0	0
334	1	1	-27.632436568499266	-49.14992796721796	71.06968416145175	0	0	0
335	1	1	-28.07104667276116	-49.85620443753006	70.51399114914832	0	0	0
336	1	1	-28.509656777023054	-50.69058693804637	70.8477980083821	0	0	0
337	1	1	-28.948266881284948	-51.39686340835847	70.29210499607868	0	0	0
338	1	1	-29.38687698554684	-52.23124590887478	70.62591185531245	0	0	0
339	1	1	-29.825487089808735	-52.93752237918688	70.07021884300903	0	0	0
340	1	1	-30.26409719407063	-53.77190487970319	70.4040257022428	0	0	0
341	1	1	-30.702707298332523	-54.47818135001529	69.84833268993938	0	0	0
342	1	1	-31.141317402594417	-55.3125638505316	70.18213954917316	0	0	0
343	1	1	-31.57992750685631	-56.0188403208437	69.62644653686974	0	0	0
344	1	1	-32.018537611118205	-56.85322282136001	69.96025339610351	0	0	0
345	1	1	-32.457147715380096	-57.55949929167211	69.40456038380009	0	0	0
346	1	1	-32.895757819641986	-58.393881792188424	69.73836724303386	0	0	0
347	1	1	-33.334367923903876	-59.10015826250052	69.18267423073044	0	0	0
348	1	1	-33.77297802816577	-59.934540763016834	69.51648108996422	0	0	0
349	1	1	-34.21158813242766	-60.64081723332893	68.9607880776608	0	0	0
350	1	1	-34.65019823668955	-61.475199733845244	69.29459493689457	0	0	0
351	1	1	-35.08880834095144	-62.18147620415734	68.73890192459115	0	0	0
352	1	1	-35.52741844521333	-63.015858704673654	69.07270878382492	0	0	0
353	1	1	-35.96602854947522	-63.72213517498575	68.5170157715215	0	0	0
354	1	1	-36.40463865373711	-64.55651767550206	68.85082263075527	0	0	0
355	1	1	-36.843248757999	-65.26279414581415	68.29512961845185	0	0	0
356	1	1	-37.28185886226089	-66.09717664633047	68.62893647768563	0	0	0
357	1	1	-37.72046896652278	-66.80345311664257	68.0732434653822	0	0	0
358	1	1	-38.15907907078467	-67.63783561715888	68.40705032461598	0	0	0
359	1	1	-38.59768917504656	-68.34411208747099	67.85135731231256	0	0	0
360	1	1	-39.03629927930845	-69.1784945879873	68.18516417154633	0	0	0
361	1	1	-39.47490938357034	-69.8847710582994	67.62947115924291	0	0	0
362	1	1	-38.77678290753822	-70.49004285062878	67.24702445593203	0	0	0
363	1	1	-38.0786564315061	-70.82300024732473	66.61317999910652	0	0	0
364	1	1	-37.380529955473975	-71.53840434733155	66.58460733461038	0	0	0
365	1	1	-36.68240347944185	-71.8713617440275	65.95076287778487	0	0	0
366	1	1	-35.98427700340973	-72.58676584403432	65.92219021328873	0	0	0
367	1	1	-35.28615052737761	-72.91972324073026	65.28834575646322	0	0	0
368	1	1	-34.588024051345485	-73.63512734073709	65.25977309196708	0	0	0
369	1	1	-33.88989757531336	-73.96808473743303	64.62592863514156	0	0	0
370	1	1	-33.19177109928124	-74.68348883743985	64.59735597064542	0	0	0
371	1	1	-32.49364462324912	-75.0164462341358	63.96351151381991	0	0	0
372	1	1	-31.795518147216995	-75.73185033414262	63.93493884932377	0	0	0
373	1	1	-31.097391671184873	-76.06480773083857	63.30109439249826	0	0	0
374	1	1	-30.39926519515275	-76.78021183084539	63.27252172800212	0	0	0
375	1	1	-29.701138719120628	-77.11316922754133	62.638677271176604	0	0	0
376	1	1	-29.003012243088506	-77.82857332754816	62.610104606680466	0	0	0
377	1	1	-28.304885767056383	-78.1615307242441	61.97626014985495	0	0	0
378	1	1	-27.60675929102426	-78.87693482425092	61.94768748535881	0	0	0
379	1	1	-26.90863281499214	-79.20989222094687	61.3138430285333	0	0	0
380	1	1	-26.210506338960016	-79.92529632095369	61.28527036403716	0	0	0
381	1	1	-25.512379862927894	-80.25825371764964	60.651425907211646	0	0	0
382	1	1	-24.81425338689577	-80.97365781765646	60.62285324271551	0	0	0
383	1	1	-24.11612691086365	-81.3066152143524	59.98900878588999	0	0	0
384	1	1	-23.418000434831526	-82.02201931435923	59.960436121393855	0	0	0
385	1	1	-22.719873958799404	-82.35497671105517	59.32659166456834	0	0	0
386	1	1	-22.02174748276728	-83.070380811062	59.2980190000722	0	0	0
387	1	1	-21.32362100673516	-83.40333820775794	58.66417454324669	0	0	0
388	1	1	-20.625494530703037	-84.11874230776476	58.63560187875055	0	0	0
389	1	1	-19.927368054670914	-84.45169970446071	58.001757421925035	0	0	0
390	1	1	-19.229241578638792	-85.16710380446753	57.973184757428896	0	0	0
391	1	1	-18.53111510260667	-85.50006120116348	57.33934030060338	0	0	0
392	1	1	-17.832988626574547	-86.2154653011703	57.310767636107244	0	0	0
393	1	1	-17.134862150542425	-86.54842269786624	56.67692317928173	0	0	0
394	1	1	-16.436735674510302	-87.26382679787307	56.64835051478559	0	0	0
395	1	1	-15.73860919847818	-87.59678419456901	56.01450605796008	0	0	0
396	1	1	-15.040482722446058	-88.31218829457583	55.98593339346394	0	0	0
397	1	1	-14.342356246413935	-88.64514569127178	55.352088936638424	0	0	0
398	1	1	-13.644229770381813	-89.3605497912786	55.323516272142285	0	0	0
399	1	1	-12.94610329434969	-89.69350718797455	54.68967181531677	0	0	0
400	1	1	-12.247976818317568	-90.40891128798137	54.66109915082063	0	0	0
401	1	1	-11.549850342285445	-90.74186868467731	54.02725469399512	0	0	0
402	1	1	-10.851723866253323	-91.45727278468414	53.99868202949898	0	0	0
403	1	1	-10.1535973902212	-91.79023018138008	53.364837572673466	0	0	0
404	1	1	-9.455470914189078	-92.5056342813869	53.33626490817733	0	0	0
405	1	1	-8.757344438156956	-92.83859167808285	52.70242045135181	0	0	0
406	1	1	-8.059217962124833	-93.55399577808967	52.673847786855674	0	0	0
407	1	1	-7.361091486092712	-93.88695317478562	52.04000333003016	0	0	0
408	1	1	-6.66296501006059	-94.60235727479244	52.01143066553402	0	0	0
409	1	1	-5.964838534028469	-94.93531467148838	51.37758620870851	0	0	0
410	1	1	-5.266712057996347	-95.6507187714952	51.34901354421237	0	0	0
411	1	1	-4.568585581964226	-95.98367616819115	50.715169087386855	0	0	0
412	1	1	-3.8704591059321043	-96.69908026819797	50.686596422890716	0	0	0
413	1	1	-3.1723326298999828	-97.03203766489392	50.0527519660652	0	0	0
414	1	1	-2.4742061538678612	-97.74744176490074	50.02417930156906	0	0	0
415	1	1	-1.7760796778357397	-98.08039916159669	49.39033484474355	0	0	0
416	1	1	-1.0779532018036182	-98.79580326160351	49.36176218024741	0	0	0
417	1	1	-0.3798267257714967	-99.12876065829946	48.727917723421896	0	0	0
418	1	1	0.31829975026062485	-99.84416475830628	48.69934505892576	0	0	0
419	1	1	1.0164262262927464	-100.17712215500222	48.065500602100244	0	0	0
420	1	1	1.714552702324868	-100.89252625500905	48.036927937604105	0	0	0
421	1	1	2.4126791783569894	-101.22548365170499	47.40308348077859	0	0	0
422	1	1	3.110805654389111	-101.94088775171181	47.37451081628245	0	0	0
423	1	1	3.8089321304212325	-102.27384514840776	46.74066635945694	0	0	0
424	1	1	4.507058606453354	-102.98924924841458	46.7120936949608	0	0	0
425	1	1	5.2051850824854755	-103.32220664511053	46.078249238135285	0	0	0
426	1	1	5.903311558517597	-104.03761074511735	46.04967657363915	0	0	0
427	1	1	6.601438034549719	-104.3705681418133	45.41583211681363	0	0	0
428	1	1	7.29956451058184	-105.08597224182012	45.387259452317494	0	0	0
429	1	1	7.997690986613962	-105.41892963851606	44.75341499549198	0	0	0
430	1	1	8.695817462646083	-106.13433373852288	44.72484233099584	0	0	0
431	1	1	9.393943938678206	-106.46729113521883	44.09099787417033	0	0	0
432	1	1	10.092070414710328	-107.18269523522565	44.06242520967419	0	0	0
433	1	1	10.79019689074245	-107.5156526319216	43.428580752848674	0	0	0
434	1	1	11.488323366774573	-108.23105673192842	43.400008088352536	0	0	0
435	1	1	12.186449842806695	-108.56401412862436	42.76616363152702	0	0	0
436	1	1	12.884576318838818	-109.27941822863119	42.73759096703088	0	0	0
437	1	1	13.58270279487094	-109.61237562532713	42.10374651020537	0	0	0
438	1	1	14.280829270903062	-110.32777972533395	42.07517384570923	0	0	0
439	1	1	14.978955746935185	-110.6607371220299	41.441329388883716	0	0	0
440	1	1	15.677082222967307	-111.37614122203672	41.41275672438758	0	0	0
441	1	1	16.37520869899943	-111.70909861873267	40.77891226756206	0	0	0
442	1	1	17.073335175031552	-112.42450271873949	40.750339603065925	0	0	0
443	1	1	17.771461651063674	-112.75746011543544	40.11649514624041	0	0	0
444	1	1	18.469588127095797	-113.47286421544226	40.08792248174427	0	0	0
445	1	1	19.16771460312792	-113.8058216121382	39.45407802491876	0	0	0
446	1	1	19.86584107916004	-114.52122571214502	39.42550536042262	0	0	0
447	1	1	20.563967555192164	-114.85418310884097	38.791660903597105	0	0	0
448	1	1	21.262094031224287	-115.56958720884779	38.763088239100966	0	0	0
449	1	1	21.96022050725641	-115.90254460554374	38.12924378227545	0	0	0
450	1	1	22.65834698328853	-116.61794870555056	38.100671117779314	0	0	0
451	1	1	23.356473459320654	-116.9509061022465	37.4668266609538	0	0	0
452	1	1	-39.986230447702034	-69.45453427318262	66.88553092097938	0	0	0
453	1	1	-40.49755151183373	-68.70996816849716	66.45637816830411	0	0	0
454	1	1	-41.00887257596542	-68.70934230207523	65.59698863051204	0	0	0