bb440nuc3bl110bn4d30tot1100V2

1101 atoms
1100 bonds
1108 angles

1 atom types
1 bond types
1 angle types

-1000 1000 xlo xhi
-1000 1000 ylo yhi
-1000 1000 zlo zhi

Masses

1 1

Atoms

1	1	1	0.0	0.0	0.0	0	0	0
2	1	1	0.0	0.0	1.0	0	0	0
3	1	1	0.0	-0.49999999999999994	1.8660254037844388	0	0	0
4	1	1	0.0	0.0	2.7320508075688776	0	0	0
5	1	1	0.0	-0.49999999999999994	3.5980762113533165	0	0	0
6	1	1	0.0	0.0	4.464101615137755	0	0	0
7	1	1	0.0	-0.49999999999999994	5.330127018922194	0	0	0
8	1	1	0.0	0.0	6.196152422706632	0	0	0
9	1	1	0.0	-0.49999999999999994	7.06217782649107	0	0	0
10	1	1	0.0	0.0	7.928203230275509	0	0	0
11	1	1	0.0	-0.49999999999999994	8.794228634059948	0	0	0
12	1	1	0.0	0.0	9.660254037844387	0	0	0
13	1	1	0.0	-0.49999999999999994	10.526279441628827	0	0	0
14	1	1	0.0	0.0	11.392304845413266	0	0	0
15	1	1	0.0	-0.49999999999999994	12.258330249197705	0	0	0
16	1	1	0.0	0.0	13.124355652982144	0	0	0
17	1	1	0.0	-0.49999999999999994	13.990381056766584	0	0	0
18	1	1	0.0	0.0	14.856406460551023	0	0	0
19	1	1	0.0	-0.49999999999999994	15.722431864335462	0	0	0
20	1	1	0.0	0.0	16.5884572681199	0	0	0
21	1	1	0.0	-0.49999999999999994	17.454482671904337	0	0	0
22	1	1	0.0	0.0	18.320508075688775	0	0	0
23	1	1	0.0	-0.49999999999999994	19.186533479473212	0	0	0
24	1	1	0.0	0.0	20.05255888325765	0	0	0
25	1	1	0.0	-0.49999999999999994	20.918584287042087	0	0	0
26	1	1	0.0	0.0	21.784609690826525	0	0	0
27	1	1	0.0	-0.49999999999999994	22.650635094610962	0	0	0
28	1	1	0.0	0.0	23.5166604983954	0	0	0
29	1	1	0.0	-0.49999999999999994	24.382685902179837	0	0	0
30	1	1	0.0	0.0	25.248711305964274	0	0	0
31	1	1	0.0	-0.49999999999999994	26.114736709748712	0	0	0
32	1	1	0.0	0.0	26.98076211353315	0	0	0
33	1	1	0.0	-0.49999999999999994	27.846787517317587	0	0	0
34	1	1	0.0	0.0	28.712812921102024	0	0	0
35	1	1	0.0	-0.49999999999999994	29.578838324886462	0	0	0
36	1	1	0.0	0.0	30.4448637286709	0	0	0
37	1	1	0.0	-0.49999999999999994	31.310889132455337	0	0	0
38	1	1	0.0	0.0	32.17691453623978	0	0	0
39	1	1	0.0	-0.49999999999999994	33.04293994002422	0	0	0
40	1	1	0.0	0.0	33.90896534380866	0	0	0
41	1	1	0.0	-0.49999999999999994	34.7749907475931	0	0	0
42	1	1	0.0	0.0	35.64101615137754	0	0	0
43	1	1	0.0	-0.49999999999999994	36.50704155516198	0	0	0
44	1	1	0.0	0.0	37.373066958946424	0	0	0
45	1	1	0.0	-0.49999999999999994	38.239092362730865	0	0	0
46	1	1	0.0	0.0	39.105117766515306	0	0	0
47	1	1	0.0	-0.49999999999999994	39.97114317029975	0	0	0
48	1	1	0.0	0.0	40.83716857408419	0	0	0
49	1	1	0.0	-0.49999999999999994	41.70319397786863	0	0	0
50	1	1	0.0	0.0	42.56921938165307	0	0	0
51	1	1	0.0	-0.49999999999999994	43.43524478543751	0	0	0
52	1	1	0.0	0.0	44.30127018922195	0	0	0
53	1	1	0.0	-0.49999999999999994	45.16729559300639	0	0	0
54	1	1	0.0	0.0	46.033320996790835	0	0	0
55	1	1	0.0	-0.49999999999999994	46.899346400575276	0	0	0
56	1	1	0.0	0.0	47.76537180435972	0	0	0
57	1	1	0.0	-0.49999999999999994	48.63139720814416	0	0	0
58	1	1	0.0	0.0	49.4974226119286	0	0	0
59	1	1	0.0	-0.49999999999999994	50.36344801571304	0	0	0
60	1	1	0.0	0.0	51.22947341949748	0	0	0
61	1	1	0.0	-0.49999999999999994	52.09549882328192	0	0	0
62	1	1	0.0	0.0	52.96152422706636	0	0	0
63	1	1	0.0	-0.49999999999999994	53.827549630850804	0	0	0
64	1	1	0.0	0.0	54.693575034635245	0	0	0
65	1	1	0.0	-0.49999999999999994	55.559600438419686	0	0	0
66	1	1	0.0	0.0	56.42562584220413	0	0	0
67	1	1	0.0	-0.49999999999999994	57.29165124598857	0	0	0
68	1	1	0.0	0.0	58.15767664977301	0	0	0
69	1	1	0.0	-0.49999999999999994	59.02370205355745	0	0	0
70	1	1	0.0	0.0	59.88972745734189	0	0	0
71	1	1	0.0	-0.49999999999999994	60.75575286112633	0	0	0
72	1	1	0.0	0.0	61.62177826491077	0	0	0
73	1	1	0.0	-0.49999999999999994	62.487803668695214	0	0	0
74	1	1	0.0	0.0	63.353829072479655	0	0	0
75	1	1	0.0	-0.49999999999999994	64.21985447626409	0	0	0
76	1	1	0.0	0.0	65.08587988004852	0	0	0
77	1	1	0.0	-0.49999999999999994	65.95190528383296	0	0	0
78	1	1	0.0	0.0	66.81793068761739	0	0	0
79	1	1	0.0	-0.49999999999999994	67.68395609140183	0	0	0
80	1	1	0.0	0.0	68.54998149518626	0	0	0
81	1	1	0.0	-0.49999999999999994	69.41600689897069	0	0	0
82	1	1	0.0	0.0	70.28203230275513	0	0	0
83	1	1	0.0	-0.49999999999999994	71.14805770653956	0	0	0
84	1	1	0.0	0.0	72.014083110324	0	0	0
85	1	1	0.0	-0.49999999999999994	72.88010851410843	0	0	0
86	1	1	0.0	0.0	73.74613391789286	0	0	0
87	1	1	0.0	-0.49999999999999994	74.6121593216773	0	0	0
88	1	1	0.0	0.0	75.47818472546173	0	0	0
89	1	1	0.0	-0.49999999999999994	76.34421012924616	0	0	0
90	1	1	0.0	0.0	77.2102355330306	0	0	0
91	1	1	0.0	-0.49999999999999994	78.07626093681503	0	0	0
92	1	1	0.0	0.0	78.94228634059947	0	0	0
93	1	1	0.0	-0.49999999999999994	79.8083117443839	0	0	0
94	1	1	0.0	0.0	80.67433714816833	0	0	0
95	1	1	0.0	-0.49999999999999994	81.54036255195277	0	0	0
96	1	1	0.0	0.0	82.4063879557372	0	0	0
97	1	1	0.0	-0.49999999999999994	83.27241335952164	0	0	0
98	1	1	0.0	0.0	84.13843876330607	0	0	0
99	1	1	0.0	-0.49999999999999994	85.0044641670905	0	0	0
100	1	1	0.0	0.0	85.87048957087494	0	0	0
101	1	1	0.0	-0.49999999999999994	86.73651497465937	0	0	0
102	1	1	0.0	0.0	87.6025403784438	0	0	0
103	1	1	0.0	-0.49999999999999994	88.46856578222824	0	0	0
104	1	1	0.0	0.0	89.33459118601267	0	0	0
105	1	1	0.0	-0.49999999999999994	90.20061658979711	0	0	0
106	1	1	0.0	0.0	91.06664199358154	0	0	0
107	1	1	0.0	-0.49999999999999994	91.93266739736598	0	0	0
108	1	1	0.0	0.0	92.79869280115041	0	0	0
109	1	1	0.0	-0.49999999999999994	93.66471820493484	0	0	0
110	1	1	0.0	0.0	94.53074360871928	0	0	0
111	1	1	0.0	-0.49999999999999994	95.39676901250371	0	0	0
112	1	1	0.881978941602428	-0.9550259651356363	95.5195066091163	0	0	0
113	1	1	1.7639578832048597	-1.410458808630927	95.39828750321443	0	0	0
114	1	1	2.6459368248072916	-1.7431540555136267	95.73209436244821	0	0	0
115	1	1	3.5279157664097234	-2.1985868990089177	95.61087525654634	0	0	0
116	1	1	4.409894708012155	-2.531282145891617	95.94468211578011	0	0	0
117	1	1	5.291873649614587	-2.9867149893869076	95.82346300987824	0	0	0
118	1	1	6.173852591217019	-3.319410236269607	96.15726986911201	0	0	0
119	1	1	7.05583153281945	-3.7748430797648975	96.03605076321014	0	0	0
120	1	1	7.937810474421882	-4.107538326647597	96.36985762244392	0	0	0
121	1	1	8.819789416024314	-4.5629711701428874	96.24863851654204	0	0	0
122	1	1	9.701768357626745	-4.895666417025587	96.58244537577582	0	0	0
123	1	1	10.583747299229177	-5.351099260520877	96.46122626987395	0	0	0
124	1	1	11.465726240831609	-5.683794507403577	96.79503312910772	0	0	0
125	1	1	12.34770518243404	-6.139227350898867	96.67381402320585	0	0	0
126	1	1	13.229684124036472	-6.471922597781567	97.00762088243962	0	0	0
127	1	1	14.111663065638904	-6.927355441276857	96.88640177653775	0	0	0
128	1	1	14.993642007241336	-7.260050688159557	97.22020863577153	0	0	0
129	1	1	15.875620948843768	-7.715483531654847	97.09898952986966	0	0	0
130	1	1	16.7575998904462	-8.048178778537547	97.43279638910343	0	0	0
131	1	1	17.639578832048635	-8.503611622032839	97.31157728320156	0	0	0
132	1	1	18.521557773651068	-8.836306868915539	97.64538414243533	0	0	0
133	1	1	19.4035367152535	-9.29173971241083	97.52416503653346	0	0	0
134	1	1	20.285515656855935	-9.62443495929353	97.85797189576724	0	0	0
135	1	1	21.16749459845837	-10.079867802788822	97.73675278986536	0	0	0
136	1	1	22.049473540060802	-10.412563049671522	98.07055964909914	0	0	0
137	1	1	22.931452481663236	-10.867995893166814	97.94934054319727	0	0	0
138	1	1	23.81343142326567	-11.200691140049514	98.28314740243104	0	0	0
139	1	1	24.695410364868103	-11.656123983544806	98.16192829652917	0	0	0
140	1	1	25.577389306470536	-11.988819230427506	98.49573515576294	0	0	0
141	1	1	26.45936824807297	-12.444252073922797	98.37451604986107	0	0	0
142	1	1	27.341347189675403	-12.776947320805498	98.70832290909485	0	0	0
143	1	1	28.223326131277837	-13.232380164300789	98.58710380319297	0	0	0
144	1	1	29.10530507288027	-13.56507541118349	98.92091066242675	0	0	0
145	1	1	29.987284014482704	-14.02050825467878	98.79969155652488	0	0	0
146	1	1	30.869262956085137	-14.353203501561481	99.13349841575865	0	0	0
147	1	1	31.75124189768757	-14.808636345056772	99.01227930985678	0	0	0
148	1	1	32.633220839290004	-15.141331591939473	99.34608616909055	0	0	0
149	1	1	33.51519978089244	-15.596764435434764	99.22486706318868	0	0	0
150	1	1	34.39717872249487	-15.929459682317464	99.55867392242246	0	0	0
151	1	1	35.279157664097305	-16.384892525812756	99.43745481652059	0	0	0
152	1	1	36.16113660569974	-16.717587772695456	99.77126167575436	0	0	0
153	1	1	37.04311554730217	-17.173020616190747	99.65004256985249	0	0	0
154	1	1	37.925094488904605	-17.505715863073448	99.98384942908626	0	0	0
155	1	1	38.80707343050704	-17.96114870656874	99.86263032318439	0	0	0
156	1	1	39.68905237210947	-18.29384395345144	100.19643718241817	0	0	0
157	1	1	40.571031313711906	-18.74927679694673	100.0752180765163	0	0	0
158	1	1	41.45301025531434	-19.08197204382943	100.40902493575007	0	0	0
159	1	1	42.33498919691677	-19.537404887324723	100.2878058298482	0	0	0
160	1	1	43.216968138519206	-19.870100134207423	100.62161268908197	0	0	0
161	1	1	44.09894708012164	-20.325532977702714	100.5003935831801	0	0	0
162	1	1	44.98092602172407	-20.658228224585415	100.83420044241387	0	0	0
163	1	1	45.86290496332651	-21.113661068080706	100.712981336512	0	0	0
164	1	1	46.74488390492894	-21.446356314963406	101.04678819574578	0	0	0
165	1	1	47.626862846531374	-21.901789158458698	100.9255690898439	0	0	0
166	1	1	48.50884178813381	-22.234484405341398	101.25937594907768	0	0	0
167	1	1	49.39082072973624	-22.68991724883669	101.1381568431758	0	0	0
168	1	1	50.272799671338674	-23.02261249571939	101.47196370240958	0	0	0
169	1	1	51.15477861294111	-23.47804533921468	101.35074459650771	0	0	0
170	1	1	52.03675755454354	-23.81074058609738	101.68455145574148	0	0	0
171	1	1	52.918736496145975	-24.266173429592673	101.56333234983961	0	0	0
172	1	1	53.80071543774841	-24.598868676475373	101.89713920907339	0	0	0
173	1	1	54.68269437935084	-25.054301519970664	101.77592010317152	0	0	0
174	1	1	55.564673320953275	-25.386996766853365	102.10972696240529	0	0	0
175	1	1	56.44665226255571	-25.842429610348656	101.98850785650342	0	0	0
176	1	1	57.32863120415814	-26.175124857231356	102.32231471573719	0	0	0
177	1	1	58.210610145760576	-26.630557700726648	102.20109560983532	0	0	0
178	1	1	59.09258908736301	-26.963252947609348	102.5349024690691	0	0	0
179	1	1	59.97456802896544	-27.41868579110464	102.41368336316722	0	0	0
180	1	1	60.85654697056788	-27.75138103798734	102.747490222401	0	0	0
181	1	1	61.73852591217031	-28.20681388148263	102.62627111649913	0	0	0
182	1	1	62.620504853772744	-28.53950912836533	102.9600779757329	0	0	0
183	1	1	63.50248379537518	-28.994941971860623	102.83885886983103	0	0	0
184	1	1	64.38446273697761	-29.327637218743323	103.1726657290648	0	0	0
185	1	1	65.26644167858004	-29.783070062238615	103.05144662316293	0	0	0
186	1	1	66.14842062018246	-30.115765309121315	103.3852534823967	0	0	0
187	1	1	67.03039956178489	-30.571198152616606	103.26403437649483	0	0	0
188	1	1	67.91237850338732	-30.903893399499307	103.59784123572861	0	0	0
189	1	1	68.79435744498974	-31.359326242994598	103.47662212982674	0	0	0
190	1	1	69.67633638659217	-31.6920214898773	103.81042898906051	0	0	0
191	1	1	70.5583153281946	-32.147454333372586	103.68920988315864	0	0	0
192	1	1	71.44029426979702	-32.480149580255286	104.02301674239241	0	0	0
193	1	1	72.32227321139945	-32.935582423750574	103.90179763649054	0	0	0
194	1	1	73.20425215300187	-33.268277670633275	104.23560449572432	0	0	0
195	1	1	74.0862310946043	-33.72371051412856	104.11438538982244	0	0	0
196	1	1	74.96821003620673	-34.05640576101126	104.44819224905622	0	0	0
197	1	1	75.85018897780915	-34.51183860450655	104.32697314315435	0	0	0
198	1	1	76.73216791941158	-34.84453385138925	104.66078000238812	0	0	0
199	1	1	77.614146861014	-35.29996669488454	104.53956089648625	0	0	0
200	1	1	78.49612580261643	-35.63266194176724	104.87336775572003	0	0	0
201	1	1	79.37810474421886	-36.08809478526253	104.75214864981815	0	0	0
202	1	1	80.26008368582129	-36.42079003214523	105.08595550905193	0	0	0
203	1	1	81.14206262742371	-36.876222875640515	104.96473640315006	0	0	0
204	1	1	82.02404156902614	-37.208918122523215	105.29854326238383	0	0	0
205	1	1	82.90602051062857	-37.6643509660185	105.17732415648196	0	0	0
206	1	1	83.78799945223099	-37.9970462129012	105.51113101571573	0	0	0
207	1	1	84.66997839383342	-38.45247905639649	105.38991190981386	0	0	0
208	1	1	85.55195733543584	-38.78517430327919	105.72371876904764	0	0	0
209	1	1	86.43393627703827	-39.24060714677448	105.60249966314576	0	0	0
210	1	1	87.3159152186407	-39.57330239365718	105.93630652237954	0	0	0
211	1	1	88.19789416024312	-40.02873523715247	105.81508741647767	0	0	0
212	1	1	89.07987310184555	-40.36143048403517	106.14889427571144	0	0	0
213	1	1	89.96185204344798	-40.816863327530456	106.02767516980957	0	0	0
214	1	1	90.8438309850504	-41.149558574413156	106.36148202904334	0	0	0
215	1	1	91.72580992665283	-41.604991417908444	106.24026292314147	0	0	0
216	1	1	92.60778886825526	-41.937686664791144	106.57406978237525	0	0	0
217	1	1	93.48976780985768	-42.39311950828643	106.45285067647337	0	0	0
218	1	1	94.37174675146011	-42.72581475516913	106.78665753570715	0	0	0
219	1	1	95.25372569306253	-43.18124759866442	106.66543842980528	0	0	0
220	1	1	96.13570463466496	-43.51394284554712	106.99924528903905	0	0	0
221	1	1	97.01768357626739	-43.96937568904241	106.87802618313718	0	0	0
222	1	1	-0.7291120063199601	-1.1843263680593357	95.38711995976301	0	0	0
223	1	1	-1.458224012639923	-1.772145860907914	95.03660045093744	0	0	0
224	1	1	-2.1873360189598863	-2.36961440649719	95.37040731017122	0	0	0
225	1	1	-2.9164480252798493	-2.9574338993457685	95.01988780134565	0	0	0
226	1	1	-3.6455600315998122	-3.5549024449350446	95.35369466057942	0	0	0
227	1	1	-4.374672037919775	-4.142721937783623	95.00317515175385	0	0	0
228	1	1	-5.103784044239738	-4.740190483372899	95.33698201098763	0	0	0
229	1	1	-5.832896050559701	-5.328009976221478	94.98646250216206	0	0	0
230	1	1	-6.562008056879664	-5.925478521810754	95.32026936139583	0	0	0
231	1	1	-7.291120063199627	-6.513298014659332	94.96974985257026	0	0	0
232	1	1	-8.02023206951959	-7.110766560248608	95.30355671180403	0	0	0
233	1	1	-8.749344075839552	-7.698586053097187	94.95303720297846	0	0	0
234	1	1	-9.478456082159516	-8.296054598686462	95.28684406221224	0	0	0
235	1	1	-10.20756808847948	-8.88387409153504	94.93632455338667	0	0	0
236	1	1	-10.936680094799444	-9.481342637124316	95.27013141262044	0	0	0
237	1	1	-11.665792101119408	-10.069162129972893	94.91961190379487	0	0	0
238	1	1	-12.394904107439372	-10.66663067556217	95.25341876302865	0	0	0
239	1	1	-13.124016113759335	-11.254450168410747	94.90289925420308	0	0	0
240	1	1	-13.8531281200793	-11.851918714000023	95.23670611343685	0	0	0
241	1	1	-14.582240126399263	-12.4397382068486	94.88618660461128	0	0	0
242	1	1	-15.311352132719227	-13.037206752437877	95.21999346384506	0	0	0
243	1	1	-16.04046413903919	-13.625026245286454	94.86947395501949	0	0	0
244	1	1	-16.769576145359153	-14.22249479087573	95.20328081425326	0	0	0
245	1	1	-17.498688151679115	-14.810314283724308	94.85276130542769	0	0	0
246	1	1	-18.227800157999077	-15.407782829313584	95.18656816466147	0	0	0
247	1	1	-18.95691216431904	-15.995602322162162	94.8360486558359	0	0	0
248	1	1	-19.686024170639	-16.593070867751436	95.16985551506967	0	0	0
249	1	1	-20.415136176958963	-17.180890360600014	94.8193360062441	0	0	0
250	1	1	-21.144248183278926	-17.77835890618929	95.15314286547788	0	0	0
251	1	1	-21.873360189598888	-18.366178399037867	94.8026233566523	0	0	0
252	1	1	-22.60247219591885	-18.963646944627143	95.13643021588608	0	0	0
253	1	1	-23.331584202238812	-19.55146643747572	94.78591070706051	0	0	0
254	1	1	-24.060696208558774	-20.148934983064997	95.11971756629428	0	0	0
255	1	1	-24.789808214878736	-20.736754475913575	94.76919805746871	0	0	0
256	1	1	-25.518920221198698	-21.33422302150285	95.10300491670249	0	0	0
257	1	1	-26.24803222751866	-21.92204251435143	94.75248540787692	0	0	0
258	1	1	-26.977144233838622	-22.519511059940704	95.0862922671107	0	0	0
259	1	1	-27.706256240158584	-23.107330552789282	94.73577275828512	0	0	0
260	1	1	-28.435368246478546	-23.704799098378558	95.0695796175189	0	0	0
261	1	1	-29.16448025279851	-24.292618591227136	94.71906010869333	0	0	0
262	1	1	-29.89359225911847	-24.890087136816412	95.0528669679271	0	0	0
263	1	1	-30.622704265438433	-25.47790662966499	94.70234745910153	0	0	0
264	1	1	-31.351816271758395	-26.075375175254266	95.0361543183353	0	0	0
265	1	1	-32.08092827807836	-26.663194668102843	94.68563480950974	0	0	0
266	1	1	-32.810040284398326	-27.26066321369212	95.01944166874351	0	0	0
267	1	1	-33.53915229071829	-27.848482706540697	94.66892215991794	0	0	0
268	1	1	-34.26826429703826	-28.445951252129973	95.00272901915172	0	0	0
269	1	1	-34.99737630335822	-29.03377074497855	94.65220951032614	0	0	0
270	1	1	-35.72648830967819	-29.631239290567827	94.98601636955992	0	0	0
271	1	1	-36.455600315998154	-30.219058783416404	94.63549686073435	0	0	0
272	1	1	-37.18471232231812	-30.81652732900568	94.96930371996812	0	0	0
273	1	1	-37.913824328638086	-31.404346821854258	94.61878421114255	0	0	0
274	1	1	-38.64293633495805	-32.001815367443534	94.95259107037633	0	0	0
275	1	1	-39.37204834127802	-32.589634860292115	94.60207156155076	0	0	0
276	1	1	-40.10116034759798	-33.18710340588139	94.93587842078453	0	0	0
277	1	1	-40.83027235391795	-33.77492289872997	94.58535891195896	0	0	0
278	1	1	-41.559384360237914	-34.37239144431924	94.91916577119274	0	0	0
279	1	1	-42.28849636655788	-34.96021093716782	94.56864626236717	0	0	0
280	1	1	-43.017608372877845	-35.557679482757095	94.90245312160094	0	0	0
281	1	1	-43.74672037919781	-36.145498975605676	94.55193361277537	0	0	0
282	1	1	-44.475832385517776	-36.74296752119495	94.88574047200915	0	0	0
283	1	1	-45.20494439183774	-37.33078701404353	94.53522096318358	0	0	0
284	1	1	-45.93405639815771	-37.9282555596328	94.86902782241735	0	0	0
285	1	1	-46.66316840447767	-38.51607505248138	94.51850831359178	0	0	0
286	1	1	-47.39228041079764	-39.113543598070656	94.85231517282556	0	0	0
287	1	1	-48.121392417117605	-39.70136309091924	94.50179566399999	0	0	0
288	1	1	-48.85050442343757	-40.29883163650851	94.83560252323376	0	0	0
289	1	1	-49.579616429757536	-40.88665112935709	94.48508301440819	0	0	0
290	1	1	-50.3087284360775	-41.48411967494636	94.81888987364196	0	0	0
291	1	1	-51.03784044239747	-42.071939167794945	94.4683703648164	0	0	0
292	1	1	-51.76695244871743	-42.66940771338422	94.80217722405017	0	0	0
293	1	1	-52.4960644550374	-43.2572272062328	94.4516577152246	0	0	0
294	1	1	-53.225176461357364	-43.85469575182207	94.78546457445837	0	0	0
295	1	1	-53.95428846767733	-44.44251524467065	94.4349450656328	0	0	0
296	1	1	-54.683400473997295	-45.039983790259924	94.76875192486658	0	0	0
297	1	1	-55.41251248031726	-45.627803283108506	94.41823241604101	0	0	0
298	1	1	-56.14162448663723	-46.22527182869778	94.75203927527478	0	0	0
299	1	1	-56.87073649295719	-46.81309132154636	94.40151976644921	0	0	0
300	1	1	-57.59984849927716	-47.41055986713563	94.73532662568299	0	0	0
301	1	1	-58.328960505597124	-47.99837935998421	94.38480711685742	0	0	0
302	1	1	-59.05807251191709	-48.595847905573486	94.71861397609119	0	0	0
303	1	1	-59.787184518237055	-49.18366739842207	94.36809446726562	0	0	0
304	1	1	-60.51629652455702	-49.78113594401134	94.7019013264994	0	0	0
305	1	1	-61.245408530876986	-50.36895543685992	94.35138181767383	0	0	0
306	1	1	-61.97452053719695	-50.96642398244919	94.6851886769076	0	0	0
307	1	1	-62.70363254351692	-51.554243475297774	94.33466916808203	0	0	0
308	1	1	-63.43274454983688	-52.15171202088705	94.6684760273158	0	0	0
309	1	1	-64.16185655615685	-52.73953151373563	94.31795651849023	0	0	0
310	1	1	-64.89096856247681	-53.3370000593249	94.65176337772401	0	0	0
311	1	1	-65.62008056879678	-53.92481955217348	94.30124386889844	0	0	0
312	1	1	-66.34919257511675	-54.522288097762754	94.63505072813221	0	0	0
313	1	1	-67.07830458143671	-55.110107590611335	94.28453121930664	0	0	0
314	1	1	-67.80741658775668	-55.70757613620061	94.61833807854042	0	0	0
315	1	1	-68.53652859407664	-56.29539562904919	94.26781856971485	0	0	0
316	1	1	-69.26564060039661	-56.89286417463846	94.60162542894862	0	0	0
317	1	1	-69.99475260671657	-57.48068366748704	94.25110592012305	0	0	0
318	1	1	-70.72386461303654	-58.078152213076315	94.58491277935683	0	0	0
319	1	1	-71.4529766193565	-58.665971705924896	94.23439327053126	0	0	0
320	1	1	-72.18208862567647	-59.26344025151417	94.56820012976503	0	0	0
321	1	1	-72.91120063199644	-59.85125974436275	94.21768062093946	0	0	0
322	1	1	-73.6403126383164	-60.44872828995202	94.55148748017324	0	0	0
323	1	1	-74.36942464463637	-61.036547782800604	94.20096797134767	0	0	0
324	1	1	-75.09853665095633	-61.634016328389876	94.53477483058144	0	0	0
325	1	1	-75.8276486572763	-62.22183582123846	94.18425532175587	0	0	0
326	1	1	-76.55676066359626	-62.81930436682773	94.51806218098965	0	0	0
327	1	1	-77.28587266991623	-63.40712385967631	94.16754267216407	0	0	0
328	1	1	-78.0149846762362	-64.00459240526558	94.50134953139785	0	0	0
329	1	1	-78.74409668255616	-64.59241189811416	94.15083002257228	0	0	0
330	1	1	-79.47320868887613	-65.18988044370344	94.48463688180605	0	0	0
331	1	1	-80.2023206951961	-65.77769993655203	94.13411737298048	0	0	0
332	1	1	-0.15286693528247947	0.1386420443443082	96.15093612879363	0	0	0
333	1	1	-0.3057338705649596	0.31463872052634684	97.12338503237171	0	0	0
334	1	1	-0.4586008058474397	1.2448025129983105	97.45719189160549	0	0	0
335	1	1	-0.6114677411299198	1.420799189180349	98.42964079518357	0	0	0
336	1	1	-0.7643346764123998	2.3509629816523128	98.76344765441735	0	0	0
337	1	1	-0.9172016116948799	2.526959657834351	99.73589655799543	0	0	0
338	1	1	-1.0700685469773599	3.457123450306315	100.0697034172292	0	0	0
339	1	1	-1.22293548225984	3.633120126488354	101.04215232080729	0	0	0
340	1	1	-1.37580241754232	4.563283918960318	101.37595918004106	0	0	0
341	1	1	-1.5286693528248	4.739280595142357	102.34840808361915	0	0	0
342	1	1	-1.6815362881072802	5.669444387614321	102.68221494285292	0	0	0
343	1	1	-1.8344032233897603	5.845441063796359	103.654663846431	0	0	0
344	1	1	-1.9872701586722403	6.775604856268323	103.98847070566478	0	0	0
345	1	1	-2.1401370939547206	6.951601532450362	104.96091960924286	0	0	0
346	1	1	-2.2930040292372005	7.881765324922326	105.29472646847664	0	0	0
347	1	1	-2.445870964519681	8.057762001104365	106.26717537205472	0	0	0
348	1	1	-2.5987378998021606	8.987925793576329	106.6009822312885	0	0	0
349	1	1	-2.751604835084641	9.163922469758367	107.57343113486658	0	0	0
350	1	1	-2.904471770367121	10.09408626223033	107.90723799410036	0	0	0
351	1	1	-3.057338705649601	10.270082938412369	108.87968689767844	0	0	0
352	1	1	-3.210205640932081	11.200246730884333	109.21349375691221	0	0	0
353	1	1	-3.3630725762145612	11.37624340706637	110.1859426604903	0	0	0
354	1	1	-3.515939511497041	12.306407199538334	110.51974951972407	0	0	0
355	1	1	-3.6688064467795214	12.482403875720372	111.49219842330216	0	0	0
356	1	1	-3.8216733820620012	13.412567668192336	111.82600528253593	0	0	0
357	1	1	-3.9745403173444815	13.588564344374374	112.79845418611401	0	0	0
358	1	1	-4.127407252626962	14.518728136846338	113.13226104534779	0	0	0
359	1	1	-4.280274187909442	14.694724813028376	114.10470994892587	0	0	0
360	1	1	-4.433141123191922	15.62488860550034	114.43851680815965	0	0	0
361	1	1	-4.586008058474403	15.800885281682378	115.41096571173773	0	0	0
362	1	1	-4.738874993756883	16.731049074154342	115.7447725709715	0	0	0
363	1	1	-4.891741929039363	16.90704575033638	116.71722147454959	0	0	0
364	1	1	-5.044608864321844	17.837209542808342	117.05102833378336	0	0	0
365	1	1	-5.197475799604324	18.01320621899038	118.02347723736145	0	0	0
366	1	1	-5.350342734886804	18.943370011462342	118.35728409659522	0	0	0
367	1	1	-5.5032096701692845	19.11936668764438	119.3297330001733	0	0	0
368	1	1	-5.656076605451765	20.049530480116342	119.66353985940708	0	0	0
369	1	1	-5.808943540734245	20.22552715629838	120.63598876298516	0	0	0
370	1	1	-5.961810476016725	21.155690948770342	120.96979562221894	0	0	0
371	1	1	-6.114677411299206	21.33168762495238	121.94224452579702	0	0	0
372	1	1	-6.267544346581686	22.261851417424342	122.2760513850308	0	0	0
373	1	1	-6.420411281864166	22.43784809360638	123.24850028860888	0	0	0
374	1	1	-6.573278217146647	23.368011886078342	123.58230714784266	0	0	0
375	1	1	-6.726145152429127	23.54400856226038	124.55475605142074	0	0	0
376	1	1	-6.879012087711607	24.474172354732342	124.88856291065451	0	0	0
377	1	1	-7.0318790229940875	24.65016903091438	125.8610118142326	0	0	0
378	1	1	-7.184745958276568	25.580332823386343	126.19481867346637	0	0	0
379	1	1	-7.337612893559048	25.75632949956838	127.16726757704446	0	0	0
380	1	1	-7.490479828841528	26.686493292040343	127.50107443627823	0	0	0
381	1	1	-7.643346764124009	26.86248996822238	128.4735233398563	0	0	0
382	1	1	-7.796213699406489	27.792653760694343	128.80733019909007	0	0	0
383	1	1	-7.949080634688969	27.96865043687638	129.77977910266816	0	0	0
384	1	1	-8.101947569971449	28.898814229348343	130.11358596190192	0	0	0
385	1	1	-8.254814505253929	29.07481090553038	131.08603486548	0	0	0
386	1	1	-8.40768144053641	30.004974698002343	131.41984172471376	0	0	0
387	1	1	-8.56054837581889	30.18097137418438	132.39229062829185	0	0	0
388	1	1	-8.71341531110137	31.111135166656343	132.7260974875256	0	0	0
389	1	1	-8.86628224638385	31.28713184283838	133.6985463911037	0	0	0
390	1	1	-9.01914918166633	32.21729563531034	134.03235325033745	0	0	0
391	1	1	-9.17201611694881	32.39329231149238	135.00480215391553	0	0	0
392	1	1	-9.324883052231291	33.32345610396435	135.3386090131493	0	0	0
393	1	1	-9.477749987513771	33.499452780146385	136.31105791672738	0	0	0
394	1	1	-9.630616922796252	34.42961657261835	136.64486477596114	0	0	0
395	1	1	-9.783483858078732	34.60561324880039	137.61731367953922	0	0	0
396	1	1	-9.936350793361212	35.535777041272354	137.95112053877298	0	0	0
397	1	1	-10.089217728643693	35.71177371745439	138.92356944235107	0	0	0
398	1	1	-10.242084663926173	36.64193750992636	139.25737630158483	0	0	0
399	1	1	-10.394951599208653	36.817934186108396	140.2298252051629	0	0	0
400	1	1	-10.547818534491133	37.74809797858036	140.56363206439667	0	0	0
401	1	1	-10.700685469773614	37.9240946547624	141.53608096797475	0	0	0
402	1	1	-10.853552405056094	38.854258447234365	141.86988782720852	0	0	0
403	1	1	-11.006419340338574	39.0302551234164	142.8423367307866	0	0	0
404	1	1	-11.159286275621055	39.96041891588837	143.17614359002036	0	0	0
405	1	1	-11.312153210903535	40.136415592070406	144.14859249359844	0	0	0
406	1	1	-11.465020146186015	41.06657938454237	144.4823993528322	0	0	0
407	1	1	-11.617887081468496	41.24257606072441	145.4548482564103	0	0	0
408	1	1	-11.770754016750976	42.172739853196376	145.78865511564405	0	0	0
409	1	1	-11.923620952033456	42.348736529378414	146.76110401922213	0	0	0
410	1	1	-12.076487887315936	43.27890032185038	147.0949108784559	0	0	0
411	1	1	-12.229354822598417	43.45489699803242	148.06735978203398	0	0	0
412	1	1	-12.382221757880897	44.38506079050438	148.40116664126774	0	0	0
413	1	1	-12.535088693163377	44.56105746668642	149.37361554484582	0	0	0
414	1	1	-12.687955628445858	45.49122125915839	149.70742240407958	0	0	0
415	1	1	-12.840822563728338	45.667217935340425	150.67987130765766	0	0	0
416	1	1	-12.993689499010818	46.59738172781239	151.01367816689142	0	0	0
417	1	1	-13.146556434293299	46.77337840399443	151.9861270704695	0	0	0
418	1	1	-13.299423369575779	47.703542196466394	152.31993392970327	0	0	0
419	1	1	-13.45229030485826	47.87953887264843	153.29238283328135	0	0	0
420	1	1	-13.60515724014074	48.8097026651204	153.6261896925151	0	0	0
421	1	1	-13.75802417542322	48.985699341302436	154.5986385960932	0	0	0
422	1	1	-13.9108911107057	49.9158631337744	154.93244545532696	0	0	0
423	1	1	-14.06375804598818	50.09185980995644	155.90489435890504	0	0	0
424	1	1	-14.21662498127066	51.022023602428405	156.2387012181388	0	0	0
425	1	1	-14.369491916553141	51.19802027861044	157.21115012171688	0	0	0
426	1	1	-14.522358851835621	52.12818407108241	157.54495698095064	0	0	0
427	1	1	-14.675225787118102	52.304180747264446	158.51740588452873	0	0	0
428	1	1	-14.828092722400582	53.23434453973641	158.8512127437625	0	0	0
429	1	1	-14.980959657683062	53.41034121591845	159.82366164734057	0	0	0
430	1	1	-15.133826592965542	54.340505008390416	160.15746850657433	0	0	0
431	1	1	-15.286693528248023	54.516501684572454	161.12991741015242	0	0	0
432	1	1	-15.439560463530503	55.44666547704442	161.46372426938618	0	0	0
433	1	1	-15.592427398812983	55.62266215322646	162.43617317296426	0	0	0
434	1	1	-15.745294334095464	56.55282594569842	162.76998003219802	0	0	0
435	1	1	-15.898161269377944	56.72882262188046	163.7424289357761	0	0	0
436	1	1	-16.051028204660422	57.65898641435243	164.07623579500986	0	0	0
437	1	1	-16.2038951399429	57.834983090534465	165.04868469858795	0	0	0
438	1	1	-16.35676207522538	58.76514688300643	165.3824915578217	0	0	0
439	1	1	-16.509629010507858	58.94114355918847	166.3549404613998	0	0	0
440	1	1	-16.662495945790337	59.871307351660434	166.68874732063355	0	0	0
441	1	1	-16.815362881072815	60.04730402784247	167.66119622421164	0	0	0
442	1	1	-16.94006519805956	61.028690604394484	167.80724320124867	0	0	0
443	1	1	-17.064767515046306	61.80557282210305	168.42441688178468	0	0	0
444	1	1	-17.18946983203305	62.72850201684866	168.06020398576868	0	0	0
445	1	1	-17.314172149019797	63.505384234557226	168.6773776663047	0	0	0
446	1	1	-17.438874466006542	64.42831342930283	168.3131647702887	0	0	0
447	1	1	-17.563576782993287	65.2051956470114	168.9303384508247	0	0	0
448	1	1	-17.688279099980033	66.128124841757	168.5661255548087	0	0	0
449	1	1	-17.812981416966778	66.90500705946556	169.18329923534472	0	0	0
450	1	1	-17.937683733953524	67.82793625421117	168.81908633932872	0	0	0
451	1	1	-18.06238605094027	68.60481847191973	169.43626001986473	0	0	0
452	1	1	-18.187088367927014	69.52774766666533	169.07204712384873	0	0	0
453	1	1	-18.31179068491376	70.3046298843739	169.68922080438475	0	0	0
454	1	1	-18.436493001900505	71.2275590791195	169.32500790836875	0	0	0
455	1	1	-18.56119531888725	72.00444129682806	169.94218158890476	0	0	0
456	1	1	-18.685897635873996	72.92737049157367	169.57796869288876	0	0	0
457	1	1	-18.81059995286074	73.70425270928223	170.19514237342477	0	0	0
458	1	1	-18.935302269847487	74.62718190402784	169.83092947740877	0	0	0
459	1	1	-19.060004586834232	75.4040641217364	170.4481031579448	0	0	0
460	1	1	-19.184706903820977	76.326993316482	170.0838902619288	0	0	0