ITEM: TIMESTEP
0
ITEM: NUMBER OF ATOMS
199
ITEM: BOX BOUNDS pp pp pp
-1.0000000000000000e+03 1.0000000000000000e+03
-1.0000000000000000e+03 1.0000000000000000e+03
-1.0000000000000000e+03 1.0000000000000000e+03
ITEM: ATOMS id x y z ix iy iz
1 0.00000 0.00000 0.00000 0 0 0
2 0.00000 0.00000 1.00000 0 0 0
3 0.00000 -0.50000 1.86603 0 0 0
4 0.00000 0.00000 2.73205 0 0 0
5 0.00000 -0.50000 3.59808 0 0 0
6 0.00000 0.00000 4.46410 0 0 0
7 0.00000 -0.50000 5.33013 0 0 0
8 0.00000 0.00000 6.19615 0 0 0
9 0.00000 -0.50000 7.06218 0 0 0
10 0.00000 0.00000 7.92820 0 0 0
11 0.00000 -0.50000 8.79423 0 0 0
12 0.00000 0.00000 9.66025 0 0 0
13 0.00000 -0.50000 10.52628 0 0 0
14 0.00000 0.00000 11.39230 0 0 0
15 0.00000 -0.50000 12.25833 0 0 0
16 0.00000 0.00000 13.12436 0 0 0
17 0.00000 -0.50000 13.99038 0 0 0
18 0.00000 0.00000 14.85641 0 0 0
19 0.00000 -0.50000 15.72243 0 0 0
20 0.00000 0.00000 16.58846 0 0 0
21 0.00000 -0.50000 17.45448 0 0 0
22 0.00000 0.00000 18.32051 0 0 0
23 0.00000 -0.50000 19.18653 0 0 0
24 0.00000 0.00000 20.05256 0 0 0
25 0.00000 -0.50000 20.91858 0 0 0
26 0.00000 0.00000 21.78461 0 0 0
27 0.00000 -0.50000 22.65064 0 0 0
28 0.00000 0.00000 23.51666 0 0 0
29 0.00000 -0.50000 24.38269 0 0 0
30 0.00000 0.00000 25.24871 0 0 0
31 0.00000 -0.50000 26.11474 0 0 0
32 0.00000 0.00000 26.98076 0 0 0
33 0.00000 -0.50000 27.84679 0 0 0
34 0.00000 0.00000 28.71281 0 0 0
35 0.00000 -0.50000 29.57884 0 0 0
36 0.00000 0.00000 30.44486 0 0 0
37 0.00000 -0.50000 31.31089 0 0 0
38 0.00000 0.00000 32.17691 0 0 0
39 0.00000 -0.50000 33.04294 0 0 0
40 0.00000 0.00000 33.90897 0 0 0
41 0.00000 -0.50000 34.77499 0 0 0
42 0.00000 0.00000 35.64102 0 0 0
43 0.00000 -0.50000 36.50704 0 0 0
44 0.00000 0.00000 37.37307 0 0 0
45 0.00000 -0.50000 38.23909 0 0 0
46 0.00000 0.00000 39.10512 0 0 0
47 0.00000 -0.50000 39.97114 0 0 0
48 0.00000 0.00000 40.83717 0 0 0
49 0.00000 -0.50000 41.70319 0 0 0
50 0.00000 0.00000 42.56922 0 0 0
51 0.00000 -0.50000 43.43524 0 0 0
52 0.00000 0.00000 44.30127 0 0 0
53 0.00000 -0.50000 45.16730 0 0 0
54 0.00000 0.00000 46.03332 0 0 0
55 0.00000 -0.50000 46.89935 0 0 0
56 0.00000 0.00000 47.76537 0 0 0
57 0.00000 -0.50000 48.63140 0 0 0
58 0.00000 0.00000 49.49742 0 0 0
59 0.00000 -0.50000 50.36345 0 0 0
60 0.00000 0.00000 51.22947 0 0 0
61 0.00000 -0.50000 52.09550 0 0 0
62 0.00000 0.00000 52.96152 0 0 0
63 0.00000 -0.50000 53.82755 0 0 0
64 0.00000 0.00000 54.69358 0 0 0
65 0.00000 -0.50000 55.55960 0 0 0
66 0.00000 0.00000 56.42563 0 0 0
67 0.00000 -0.50000 57.29165 0 0 0
68 0.50622 -0.14147 58.07600 0 0 0
69 1.01245 -0.22315 58.93452 0 0 0
70 1.51867 0.47951 59.43452 0 0 0
71 2.02489 0.39783 60.29305 0 0 0
72 2.53111 1.10050 60.79305 0 0 0
73 3.03734 1.01882 61.65157 0 0 0
74 3.54356 1.72148 62.15157 0 0 0
75 4.04978 1.63980 63.01010 0 0 0
76 4.55600 2.34247 63.51010 0 0 0
77 5.06223 2.26079 64.36863 0 0 0
78 5.56845 2.96345 64.86863 0 0 0
79 6.07467 2.88177 65.72715 0 0 0
80 6.58090 3.58444 66.22715 0 0 0
81 7.08712 3.50276 67.08568 0 0 0
82 7.59334 4.20542 67.58568 0 0 0
83 8.09956 4.12374 68.44420 0 0 0
84 8.60579 4.82641 68.94420 0 0 0
85 9.11201 4.74473 69.80273 0 0 0
86 9.61823 5.44739 70.30273 0 0 0
87 10.12446 5.36571 71.16126 0 0 0
88 10.63068 6.06838 71.66126 0 0 0
89 11.13690 5.98670 72.51978 0 0 0
90 11.64312 6.68936 73.01978 0 0 0
91 12.14935 6.60768 73.87831 0 0 0
92 12.65557 7.31035 74.37831 0 0 0
93 13.16179 7.22867 75.23683 0 0 0
94 13.66801 7.93133 75.73683 0 0 0
95 14.17424 7.84965 76.59536 0 0 0
96 14.68046 8.55232 77.09536 0 0 0
97 15.18668 8.47064 77.95389 0 0 0
98 15.69291 9.17330 78.45389 0 0 0
99 16.19913 9.09162 79.31241 0 0 0
100 16.70535 9.79429 79.81241 0 0 0
101 17.21157 9.71261 80.67094 0 0 0
102 17.71780 10.41527 81.17094 0 0 0
103 18.22402 10.33359 82.02946 0 0 0
104 18.73024 11.03626 82.52946 0 0 0
105 19.23647 10.95458 83.38799 0 0 0
106 19.74269 11.65725 83.88799 0 0 0
107 20.24891 11.57557 84.74652 0 0 0
108 20.75513 12.27823 85.24652 0 0 0
109 21.26136 12.19655 86.10504 0 0 0
110 21.76758 12.89922 86.60504 0 0 0
111 22.27380 12.81754 87.46357 0 0 0
112 22.78002 13.52020 87.96357 0 0 0
113 23.28625 13.43852 88.82209 0 0 0
114 23.79247 14.14119 89.32209 0 0 0
115 24.29869 14.05951 90.18062 0 0 0
116 24.80492 14.76217 90.68062 0 0 0
117 25.31114 14.68049 91.53915 0 0 0
118 25.81736 15.38316 92.03915 0 0 0
119 26.32358 15.30148 92.89767 0 0 0
120 26.82981 16.00414 93.39767 0 0 0
121 27.33603 15.92246 94.25620 0 0 0
122 27.84225 16.62513 94.75620 0 0 0
123 28.34847 16.54345 95.61472 0 0 0
124 28.85470 17.24611 96.11472 0 0 0
125 29.36092 17.16443 96.97325 0 0 0
126 29.86714 17.86710 97.47325 0 0 0
127 30.37337 17.78542 98.33178 0 0 0
128 30.87959 18.48808 98.83178 0 0 0
129 31.38581 18.40640 99.69030 0 0 0
130 31.89203 19.10907 100.19030 0 0 0
131 32.39826 19.02739 101.04883 0 0 0
132 32.90448 19.73005 101.54883 0 0 0
133 33.41070 19.64837 102.40735 0 0 0
134 -0.50622 -1.35853 57.37333 0 0 0
135 -1.01245 -2.14287 57.01481 0 0 0
136 -1.51867 -2.84554 57.51481 0 0 0
137 -2.02489 -3.62988 57.15628 0 0 0
138 -2.53111 -4.33255 57.65628 0 0 0
139 -3.03734 -5.11689 57.29775 0 0 0
140 -3.54356 -5.81956 57.79775 0 0 0
141 -4.04978 -6.60390 57.43923 0 0 0
142 -4.55600 -7.30657 57.93923 0 0 0
143 -5.06223 -8.09091 57.58070 0 0 0
144 -5.56845 -8.79358 58.08070 0 0 0
145 -6.07467 -9.57792 57.72218 0 0 0
146 -6.58090 -10.28059 58.22218 0 0 0
147 -7.08712 -11.06494 57.86365 0 0 0
148 -7.59334 -11.76760 58.36365 0 0 0
149 -8.09956 -12.55195 58.00512 0 0 0
150 -8.60579 -13.25461 58.50512 0 0 0
151 -9.11201 -14.03896 58.14660 0 0 0
152 -9.61823 -14.74162 58.64660 0 0 0
153 -10.12446 -15.52597 58.28807 0 0 0
154 -10.63068 -16.22863 58.78807 0 0 0
155 -11.13690 -17.01298 58.42955 0 0 0
156 -11.64312 -17.71564 58.92955 0 0 0
157 -12.14935 -18.49999 58.57102 0 0 0
158 -12.65557 -19.20265 59.07102 0 0 0
159 -13.16179 -19.98700 58.71249 0 0 0
160 -13.66801 -20.68966 59.21249 0 0 0
161 -14.17424 -21.47401 58.85397 0 0 0
162 -14.68046 -22.17667 59.35397 0 0 0
163 -15.18668 -22.96102 58.99544 0 0 0
164 -15.69291 -23.66369 59.49544 0 0 0
165 -16.19913 -24.44803 59.13692 0 0 0
166 -16.70535 -25.15070 59.63692 0 0 0
167 -17.21157 -25.93504 59.27839 0 0 0
168 -17.71780 -26.63771 59.77839 0 0 0
169 -18.22402 -27.42205 59.41986 0 0 0
170 -18.73024 -28.12472 59.91986 0 0 0
171 -19.23647 -28.90906 59.56134 0 0 0
172 -19.74269 -29.61173 60.06134 0 0 0
173 -20.24891 -30.39607 59.70281 0 0 0
174 -20.75513 -31.09874 60.20281 0 0 0
175 -21.26136 -31.88308 59.84429 0 0 0
176 -21.76758 -32.58575 60.34429 0 0 0
177 -22.27380 -33.37009 59.98576 0 0 0
178 -22.78002 -34.07276 60.48576 0 0 0
179 -23.28625 -34.85711 60.12723 0 0 0
180 -23.79247 -35.55977 60.62723 0 0 0
181 -24.29869 -36.34412 60.26871 0 0 0
182 -24.80492 -37.04678 60.76871 0 0 0
183 -25.31114 -37.83113 60.41018 0 0 0
184 -25.81736 -38.53379 60.91018 0 0 0
185 -26.32358 -39.31814 60.55166 0 0 0
186 -26.82981 -40.02080 61.05166 0 0 0
187 -27.33603 -40.80515 60.69313 0 0 0
188 -27.84225 -41.50781 61.19313 0 0 0
189 -28.34847 -42.29216 60.83460 0 0 0
190 -28.85470 -42.99482 61.33460 0 0 0
191 -29.36092 -43.77917 60.97608 0 0 0
192 -29.86714 -44.48183 61.47608 0 0 0
193 -30.37337 -45.26618 61.11755 0 0 0
194 -30.87959 -45.96885 61.61755 0 0 0
195 -31.38581 -46.75319 61.25903 0 0 0
196 -31.89203 -47.45586 61.75903 0 0 0
197 -32.39826 -48.24020 61.40050 0 0 0
198 -32.90448 -48.94287 61.90050 0 0 0
199 -33.41070 -49.72721 61.54197 0 0 0
ITEM: TIMESTEP
1000
ITEM: NUMBER OF ATOMS
199
ITEM: BOX BOUNDS pp pp pp
-1.0000000000000000e+03 1.0000000000000000e+03
-1.0000000000000000e+03 1.0000000000000000e+03
-1.0000000000000000e+03 1.0000000000000000e+03
ITEM: ATOMS id x y z ix iy iz
1 1.01464 -0.74232 3.48846 0 0 0
2 0.34465 -0.62849 4.15418 0 0 0
3 0.35165 0.32430 4.46687 0 0 0
4 0.96649 -0.34531 5.06273 0 0 0
5 1.84756 -0.08263 5.52238 0 0 0
6 2.58251 -0.29283 6.20078 0 0 0
7 3.05311 -0.54226 6.94981 0 0 0
8 2.27460 -0.96859 7.40542 0 0 0
9 1.70740 -1.42175 8.18819 0 0 0
10 1.76031 -1.00276 9.03107 0 0 0
11 1.36575 -0.53366 9.83574 0 0 0
12 0.58448 -0.02026 10.14216 0 0 0
13 0.42822 0.50840 11.06382 0 0 0
14 0.07918 0.90372 12.00535 0 0 0
15 -0.43925 1.36331 12.69257 0 0 0
16 -0.54368 1.01557 13.75260 0 0 0
17 -0.90487 0.55225 14.55796 0 0 0
18 -0.94397 0.96035 15.56355 0 0 0
19 -0.68681 0.96197 16.56209 0 0 0
20 -0.11524 1.02992 17.39020 0 0 0
21 0.35757 0.82375 18.19256 0 0 0
22 -0.01063 0.76817 19.06530 0 0 0
23 0.00775 1.06589 19.97678 0 0 0
24 0.51904 1.72310 20.51628 0 0 0
25 0.66125 1.55620 21.45551 0 0 0
26 0.88217 1.73103 22.45194 0 0 0
27 0.42862 1.05230 22.77049 0 0 0
28 -0.06258 1.35240 23.63945 0 0 0
29 0.00538 0.80803 24.37557 0 0 0
30 -0.61091 0.82097 25.22064 0 0 0
31 -1.04091 0.63756 26.04207 0 0 0
32 -1.61153 0.49186 26.79513 0 0 0
33 -1.55310 0.58206 27.78295 0 0 0
34 -1.53974 0.50523 28.74013 0 0 0
35 -1.69543 0.13181 29.62102 0 0 0
36 -1.75932 0.12765 30.58048 0 0 0
37 -2.17421 0.06287 31.48106 0 0 0
38 -2.27454 0.21978 32.44076 0 0 0
39 -2.07571 -0.23434 33.28481 0 0 0
40 -2.22877 -0.70659 34.16437 0 0 0
41 -2.23507 -1.00857 35.15486 0 0 0
42 -2.06840 -0.47428 36.03224 0 0 0
43 -1.94754 -0.24482 37.10639 0 0 0
44 -1.86322 0.16367 37.98945 0 0 0
45 -1.57305 0.14682 38.90765 0 0 0
46 -1.16410 0.32146 39.78705 0 0 0
47 -1.42713 0.08244 40.84017 0 0 0
48 -1.31091 0.37716 41.80099 0 0 0
49 -0.94973 0.62173 42.65188 0 0 0
50 -0.73495 0.90649 43.62106 0 0 0
51 -1.24656 1.01677 44.46687 0 0 0
52 -0.92833 1.58206 45.26956 0 0 0
53 -0.78651 1.02212 46.11190 0 0 0
54 -0.30462 0.70516 46.94210 0 0 0
55 -0.41041 1.30679 47.78463 0 0 0
56 -0.96963 0.83552 48.47476 0 0 0
57 -0.25072 0.76088 49.28823 0 0 0
58 -0.65615 0.68481 50.24010 0 0 0
59 -0.36137 0.78037 51.12126 0 0 0
60 0.23946 0.32963 51.84527 0 0 0
61 0.68369 0.16573 52.74503 0 0 0
62 0.45589 0.53672 53.73068 0 0 0
63 -0.23437 0.21097 54.38418 0 0 0
64 -0.32485 -0.28562 55.18961 0 0 0
65 -0.29612 -0.02092 56.09925 0 0 0
66 -0.21842 -0.23620 57.11132 0 0 0
67 0.51182 -0.72523 57.61614 0 0 0
68 1.05223 -0.02104 58.18703 0 0 0
69 1.75597 -0.39103 58.81299 0 0 0
70 1.72402 0.36312 59.61323 0 0 0
71 2.44229 0.58707 60.24809 0 0 0
72 3.07492 1.37872 60.63252 0 0 0
73 3.85975 1.48288 61.28179 0 0 0
74 4.14441 1.89313 62.11776 0 0 0
75 4.01525 2.15058 63.07619 0 0 0
76 4.49459 1.98437 63.92134 0 0 0
77 5.20131 2.41234 64.52028 0 0 0
78 5.71970 2.09463 65.25643 0 0 0
79 6.50511 2.01938 65.74070 0 0 0
80 7.25103 2.39901 66.09261 0 0 0
81 7.69753 2.43285 66.97124 0 0 0
82 7.82740 2.47726 67.94431 0 0 0
83 8.41291 2.96909 68.63610 0 0 0
84 8.66361 3.60719 69.31953 0 0 0
85 8.78200 4.39427 69.95636 0 0 0
86 9.28130 4.72524 70.67617 0 0 0
87 9.88459 5.04103 71.42742 0 0 0
88 10.51929 5.57574 71.92847 0 0 0
89 11.01982 5.46657 72.73558 0 0 0
90 11.72327 5.20582 73.36840 0 0 0
91 11.53859 5.24562 74.34691 0 0 0
92 11.83460 5.64343 75.24257 0 0 0
93 11.97175 6.06521 76.10574 0 0 0
94 12.23590 6.84867 76.57603 0 0 0
95 12.97509 7.25905 76.94643 0 0 0
96 13.40682 7.35314 77.83242 0 0 0
97 13.75974 7.39755 78.79289 0 0 0
98 13.68959 7.67270 79.73022 0 0 0
99 14.07104 8.51800 80.12349 0 0 0
100 14.80278 8.83366 80.62516 0 0 0
101 15.50583 9.55559 80.75311 0 0 0
102 16.45785 9.68383 81.02089 0 0 0
103 17.27335 9.89636 81.54572 0 0 0
104 17.65783 10.27431 82.39998 0 0 0
105 18.39028 10.79661 82.61577 0 0 0
106 18.70358 11.28377 83.47877 0 0 0
107 18.86874 12.25529 83.63555 0 0 0
108 19.75477 12.62914 83.90246 0 0 0
109 20.28081 13.32936 84.31848 0 0 0
110 21.11205 13.70082 84.55464 0 0 0
111 21.51208 13.82446 85.45643 0 0 0
112 22.11761 13.21704 85.79038 0 0 0
113 22.53733 13.13992 86.66109 0 0 0
114 22.59609 13.30157 87.65987 0 0 0
115 23.07461 14.11242 87.97586 0 0 0
116 22.68411 13.93348 88.83262 0 0 0
117 23.37285 14.07616 89.54135 0 0 0
118 23.94801 14.28672 90.27558 0 0 0
119 24.76197 13.77774 90.62730 0 0 0
120 25.10136 14.15681 91.43021 0 0 0
121 25.72777 14.65817 91.92968 0 0 0
122 26.15267 15.30469 92.52643 0 0 0
123 26.03952 15.44474 93.48031 0 0 0
124 26.46715 15.92683 94.25089 0 0 0
125 26.94681 16.64400 94.81749 0 0 0
126 27.54133 17.07591 94.09223 0 0 0
127 28.07775 17.71271 94.62657 0 0 0
128 28.14161 17.54278 95.59740 0 0 0
129 28.46929 18.27601 96.09131 0 0 0
130 29.10408 18.06989 96.86129 0 0 0
131 29.70294 17.40676 97.27882 0 0 0
132 30.47092 17.25430 97.92067 0 0 0
133 30.71186 16.74788 98.70940 0 0 0
134 0.09184 -1.64188 57.93985 0 0 0
135 0.11662 -2.65025 58.28921 0 0 0
136 -0.05500 -3.52245 58.76863 0 0 0
137 -0.62214 -4.37360 59.00373 0 0 0
138 -1.15143 -5.27238 59.17271 0 0 0
139 -2.17658 -5.41370 58.93264 0 0 0
140 -2.73433 -6.20196 58.78078 0 0 0
141 -3.41206 -6.96637 58.78452 0 0 0
142 -4.24814 -7.55954 59.04545 0 0 0
143 -4.71782 -8.43498 59.07722 0 0 0
144 -5.26419 -9.16714 58.61210 0 0 0
145 -5.91071 -9.97116 58.57258 0 0 0
146 -6.40197 -10.77306 58.64335 0 0 0
147 -7.05710 -11.46150 58.64614 0 0 0
148 -7.28641 -12.46354 58.50273 0 0 0
149 -7.83449 -13.27626 58.45935 0 0 0
150 -8.01645 -14.20719 58.74218 0 0 0
151 -8.71354 -14.85872 58.46663 0 0 0
152 -9.34294 -15.41999 58.01606 0 0 0
153 -10.42183 -15.64365 58.09674 0 0 0
154 -11.12165 -16.31467 57.77188 0 0 0
155 -11.69557 -17.11507 58.11206 0 0 0
156 -12.48374 -17.58164 58.38859 0 0 0
157 -13.10661 -18.39707 58.44469 0 0 0
158 -13.93931 -18.83802 58.50165 0 0 0
159 -13.98889 -19.78722 58.35866 0 0 0
160 -14.04028 -20.67187 58.10658 0 0 0
161 -14.81550 -21.29867 58.08497 0 0 0
162 -15.72256 -21.81230 58.06219 0 0 0
163 -16.69630 -22.10604 58.21910 0 0 0
164 -17.25554 -22.68231 58.72894 0 0 0
165 -18.10738 -23.19439 58.59534 0 0 0
166 -18.91899 -23.87051 58.57257 0 0 0
167 -18.90548 -24.86001 58.50113 0 0 0
168 -19.03846 -25.82838 58.49405 0 0 0
169 -19.13480 -26.62118 59.11396 0 0 0
170 -19.50102 -27.45354 58.97823 0 0 0
171 -19.90199 -28.21784 59.45615 0 0 0
172 -20.52783 -28.89312 59.92018 0 0 0
173 -21.17448 -29.64784 59.88626 0 0 0
174 -21.47868 -30.53742 60.08347 0 0 0
175 -21.47008 -31.51009 60.12155 0 0 0
176 -22.19093 -32.23234 60.32276 0 0 0
177 -22.45771 -33.15403 60.60588 0 0 0
178 -23.21844 -33.67861 60.51565 0 0 0
179 -24.11944 -33.76871 60.53620 0 0 0
180 -24.44697 -34.54431 61.15668 0 0 0
181 -24.86900 -35.08831 60.43095 0 0 0
182 -25.12974 -35.90464 60.83790 0 0 0
183 -25.81260 -36.54635 60.65258 0 0 0
184 -25.58319 -37.31898 60.15282 0 0 0
185 -25.98424 -38.20717 60.23576 0 0 0
186 -26.43096 -39.01736 60.12837 0 0 0
187 -26.44293 -39.98871 60.26824 0 0 0
188 -27.22679 -40.35035 60.65004 0 0 0
189 -27.79575 -40.86088 61.23113 0 0 0
190 -28.28761 -41.18839 60.55393 0 0 0
191 -28.46061 -42.09316 60.91420 0 0 0
192 -29.24014 -42.63823 61.26590 0 0 0
193 -30.14830 -42.78756 61.80515 0 0 0
194 -30.29446 -42.73176 62.84192 0 0 0
195 -30.13818 -43.67825 62.84527 0 0 0
196 -30.65974 -44.43873 62.39850 0 0 0
197 -30.73930 -45.05351 61.60544 0 0 0
198 -31.36362 -45.65918 61.97869 0 0 0
199 -31.73421 -46.57756 62.18416 0 0 0
ITEM: TIMESTEP
2000
ITEM: NUMBER OF ATOMS
199
ITEM: BOX BOUNDS pp pp pp
-1.0000000000000000e+03 1.0000000000000000e+03
-1.0000000000000000e+03 1.0000000000000000e+03
-1.0000000000000000e+03 1.0000000000000000e+03
ITEM: ATOMS id x y z ix iy iz
1 -2.73366 -1.20996 7.35787 0 0 0
2 -1.76720 -1.09195 7.36046 0 0 0
3 -0.86473 -0.71133 7.31470 0 0 0
4 -0.04738 -0.68375 7.76215 0 0 0
5 -0.49059 -0.35212 8.48711 0 0 0
6 -0.05722 0.39719 8.82484 0 0 0
7 0.85876 0.63839 9.05588 0 0 0
8 0.69585 0.58034 10.04211 0 0 0
9 1.12788 -0.06305 10.67693 0 0 0
10 1.52255 0.85771 10.68841 0 0 0
11 1.39347 1.57573 11.35137 0 0 0
12 1.16659 1.07219 12.12588 0 0 0
13 1.84199 0.68125 12.63294 0 0 0
14 1.00452 0.36090 12.97331 0 0 0
15 0.55472 -0.41413 13.46974 0 0 0
16 0.06312 -0.06377 14.28335 0 0 0
17 -0.00627 -0.11866 15.24101 0 0 0
18 0.23429 0.50467 16.04565 0 0 0
19 0.89909 0.53837 16.76008 0 0 0
20 1.03983 0.17168 17.71545 0 0 0
21 0.70069 0.33798 18.64188 0 0 0
22 0.70606 0.43523 19.58933 0 0 0
23 1.09686 0.44656 20.57642 0 0 0
24 1.52871 0.80684 21.37696 0 0 0
25 1.31663 0.80143 22.32714 0 0 0
26 0.62301 0.14504 22.62846 0 0 0
27 0.40167 -0.47260 23.40857 0 0 0
28 0.76162 -0.13433 24.27872 0 0 0
29 1.11648 -0.07497 25.22616 0 0 0
30 0.92692 -0.24465 26.19901 0 0 0
31 0.39932 0.17650 26.95564 0 0 0
32 0.15860 0.57923 27.79803 0 0 0
33 -0.16715 0.39742 28.75281 0 0 0
34 -0.30524 0.14043 29.74262 0 0 0
35 -0.40538 -0.31742 30.59246 0 0 0
36 -0.82654 -0.53049 31.55551 0 0 0
37 -0.44110 -0.72416 32.44123 0 0 0
38 -1.13630 -1.05707 33.17183 0 0 0
39 -1.32926 -0.67380 34.10388 0 0 0
40 -1.25274 -0.53405 35.05483 0 0 0
41 -1.33680 -0.48762 36.07090 0 0 0
42 -1.18507 -0.39989 37.02576 0 0 0
43 -1.73726 -0.24052 37.82892 0 0 0
44 -1.89295 -0.25670 38.87162 0 0 0
45 -1.90449 0.02870 39.79053 0 0 0
46 -2.50889 -0.36910 40.47068 0 0 0
47 -2.38888 0.02634 41.30076 0 0 0
48 -2.54860 -0.34163 42.18671 0 0 0
49 -2.49334 -0.06181 43.09155 0 0 0
50 -1.93042 0.00521 43.85900 0 0 0
51 -2.07369 -0.10792 44.95993 0 0 0
52 -1.87602 0.14433 45.90934 0 0 0
53 -1.68500 0.14142 46.93974 0 0 0
54 -1.33399 0.40796 47.80698 0 0 0
55 -0.72034 0.56483 48.51439 0 0 0
56 -0.32805 0.17093 49.39210 0 0 0
57 -0.12262 -0.44810 50.15654 0 0 0
58 -0.24980 -1.01702 51.01461 0 0 0
59 -0.00408 -1.58740 51.86075 0 0 0
60 0.17307 -1.64761 52.81192 0 0 0
61 0.06929 -1.40923 53.80273 0 0 0
62 -0.48107 -0.92286 54.45960 0 0 0
63 -0.67616 -0.03150 54.90176 0 0 0
64 -0.43918 -0.38587 55.78455 0 0 0
65 -0.02582 -0.25688 56.69245 0 0 0
66 0.85316 -0.27968 57.20055 0 0 0
67 1.08999 -1.02880 57.88136 0 0 0
68 1.46925 -1.36304 58.67477 0 0 0
69 2.50945 -1.56530 58.76191 0 0 0
70 2.94740 -1.58215 59.70327 0 0 0
71 3.29584 -1.26408 60.53146 0 0 0
72 3.98981 -0.58177 60.84091 0 0 0
73 4.00685 0.12157 61.55757 0 0 0
74 4.53863 0.68391 62.18279 0 0 0
75 4.97532 1.28666 62.87725 0 0 0
76 5.20392 0.92471 63.80687 0 0 0
77 6.06469 1.34716 64.17902 0 0 0
78 6.49186 1.87742 64.89686 0 0 0
79 7.35585 2.13946 65.30979 0 0 0
80 7.65682 1.91029 66.20555 0 0 0
81 7.92545 2.47469 66.93434 0 0 0
82 8.31475 2.94341 67.79868 0 0 0
83 8.66786 2.80356 68.70851 0 0 0
84 8.72886 3.51827 69.41630 0 0 0
85 9.52094 3.58444 70.08366 0 0 0
86 10.09690 3.45909 70.88913 0 0 0
87 10.66882 3.54923 71.62960 0 0 0
88 11.13990 3.80217 72.53283 0 0 0
89 11.58072 4.57462 72.95400 0 0 0
90 12.27167 4.60309 73.65420 0 0 0
91 12.31803 4.79966 74.59317 0 0 0
92 12.85133 4.46690 75.29075 0 0 0
93 13.59846 5.03765 75.56569 0 0 0
94 14.11977 5.40161 76.27783 0 0 0
95 14.44339 6.35528 76.31077 0 0 0
96 15.14224 6.95709 76.71058 0 0 0
97 15.11612 7.29079 77.69996 0 0 0
98 15.70055 7.95061 78.17742 0 0 0
99 16.37694 8.58961 78.55212 0 0 0
100 16.31069 8.14687 79.50117 0 0 0
101 16.98705 7.92178 80.21782 0 0 0
102 17.50297 8.39462 80.99172 0 0 0
103 17.95960 8.24150 81.79462 0 0 0
104 18.10139 8.24427 82.83197 0 0 0
105 18.09619 8.26907 83.82777 0 0 0
106 18.02466 8.78190 84.68473 0 0 0
107 18.41152 9.26179 85.44665 0 0 0
108 18.54088 9.76341 86.26425 0 0 0
109 19.27898 10.18918 86.80987 0 0 0
110 20.17690 10.59549 86.99861 0 0 0
111 20.60019 11.41975 87.22484 0 0 0
112 21.28239 12.01603 86.84572 0 0 0
113 21.93199 12.60015 87.33218 0 0 0
114 22.34497 13.18710 86.76456 0 0 0
115 23.09691 13.89125 86.72975 0 0 0
116 22.84079 14.67590 87.23581 0 0 0
117 23.70611 14.21453 87.58123 0 0 0
118 24.71182 14.01378 87.63787 0 0 0
119 24.35993 13.91577 88.53839 0 0 0
120 24.53612 14.24089 89.53736 0 0 0
121 24.96664 13.88691 90.44066 0 0 0
122 25.58814 14.17694 91.12071 0 0 0
123 26.30209 14.70138 91.64942 0 0 0
124 26.83700 15.28893 92.35023 0 0 0
125 27.43482 15.27563 93.20371 0 0 0
126 27.67773 15.51461 94.17986 0 0 0
127 28.38965 15.94675 94.63707 0 0 0
128 29.28076 16.23019 94.93047 0 0 0
129 30.00291 16.83377 94.55286 0 0 0
130 30.53668 17.36745 95.16561 0 0 0
131 29.96734 17.91961 95.75169 0 0 0
132 30.85102 18.35909 95.56059 0 0 0
133 31.06245 19.19282 95.02156 0 0 0
134 0.31953 -1.71083 57.80624 0 0 0
135 -0.16462 -2.58442 57.74268 0 0 0
136 -0.59727 -3.41996 57.18680 0 0 0
137 -1.24891 -4.16163 57.26879 0 0 0
138 -1.66732 -5.09106 57.26687 0 0 0
139 -2.55751 -5.43802 57.00671 0 0 0
140 -3.03693 -6.04678 57.51264 0 0 0
141 -3.62343 -6.85105 57.63832 0 0 0
142 -4.46006 -7.36252 57.52432 0 0 0
143 -5.39533 -7.63544 57.24883 0 0 0
144 -5.88318 -8.49011 57.42791 0 0 0
145 -6.78813 -8.72432 57.80087 0 0 0
146 -7.33052 -9.37335 58.24442 0 0 0
147 -8.00334 -10.05176 58.57802 0 0 0
148 -8.23868 -10.98904 58.92509 0 0 0
149 -8.52227 -11.85741 59.32033 0 0 0
150 -9.31204 -12.40577 59.58105 0 0 0
151 -9.84483 -13.14592 59.63898 0 0 0
152 -10.61562 -13.72141 59.45495 0 0 0
153 -11.18307 -14.06292 58.78802 0 0 0
154 -11.65952 -14.57089 58.12042 0 0 0
155 -12.36864 -15.15514 58.04169 0 0 0
156 -13.13680 -15.74389 58.07584 0 0 0
157 -13.44158 -16.64331 58.61445 0 0 0
158 -13.54252 -17.55143 58.27945 0 0 0
159 -14.11328 -18.37511 58.12742 0 0 0
160 -14.43790 -19.33302 58.00755 0 0 0
161 -14.95994 -20.07753 57.76422 0 0 0
162 -15.65570 -20.84309 57.76557 0 0 0
163 -15.99493 -21.71193 57.56781 0 0 0
164 -16.58784 -22.52893 57.75112 0 0 0
165 -16.36105 -23.44649 57.99096 0 0 0
166 -15.95123 -24.34939 57.96104 0 0 0
167 -16.40293 -24.98610 58.51612 0 0 0
168 -16.91291 -25.77253 58.89781 0 0 0
169 -16.93287 -26.36069 59.74263 0 0 0
170 -17.03479 -27.23116 59.26518 0 0 0
171 -17.90747 -27.58830 59.45160 0 0 0
172 -18.66850 -28.09802 59.77591 0 0 0
173 -19.58932 -28.53310 59.53832 0 0 0
174 -20.18800 -29.26109 59.35599 0 0 0
175 -21.11557 -29.47455 59.20509 0 0 0
176 -21.23486 -30.39382 58.73920 0 0 0
177 -21.56687 -31.32639 58.71632 0 0 0
178 -22.46366 -31.59540 58.53366 0 0 0
179 -22.95893 -32.19637 59.26128 0 0 0
180 -23.78215 -32.50943 59.60523 0 0 0
181 -23.82796 -33.42897 59.99227 0 0 0
182 -24.23003 -34.22343 60.27028 0 0 0
183 -24.98408 -34.50271 60.91033 0 0 0
184 -25.61936 -34.77280 61.56568 0 0 0
185 -26.24925 -35.45432 61.79077 0 0 0
186 -26.45359 -36.40707 61.87915 0 0 0
187 -26.62522 -37.36353 61.78911 0 0 0
188 -27.50115 -37.15431 62.11585 0 0 0
189 -27.36867 -38.06565 61.81261 0 0 0
190 -27.16112 -38.96854 61.54752 0 0 0
191 -27.69759 -39.64105 62.08713 0 0 0
192 -27.74924 -40.22311 61.32595 0 0 0
193 -28.33888 -40.96389 61.38181 0 0 0
194 -29.26712 -41.37439 61.44870 0 0 0
195 -29.83704 -42.19261 61.23940 0 0 0
196 -29.67483 -43.14080 61.44864 0 0 0
197 -30.48537 -43.29248 61.90530 0 0 0
198 -30.87494 -44.06919 62.35124 0 0 0
199 -31.41813 -44.07083 63.16788 0 0 0
ITEM: TIMESTEP
3000
ITEM: NUMBER OF ATOMS
199
ITEM: BOX BOUNDS pp pp pp
-1.0000000000000000e+03 1.0000000000000000e+03
-1.0000000000000000e+03 1.0000000000000000e+03
-1.0000000000000000e+03 1.0000000000000000e+03
ITEM: ATOMS id x y z ix iy iz
1 -0.41618 -1.24548 9.87411 0 0 0
2 -0.86095 -0.39297 9.71181 0 0 0
3 -0.92672 0.55016 9.46360 0 0 0
4 -1.40804 1.14053 10.02986 0 0 0
5 -1.13217 1.84653 10.53316 0 0 0
6 -0.73548 2.68489 10.86371 0 0 0
7 -0.11942 2.65023 11.75316 0 0 0
8 0.79721 2.83939 11.69877 0 0 0
9 0.73841 1.88291 11.36898 0 0 0
10 1.05721 1.08530 11.79569 0 0 0
11 1.48468 0.50501 12.44857 0 0 0
12 1.96289 -0.14556 12.96604 0 0 0
13 2.13272 -0.44643 13.95347 0 0 0
14 2.44768 -0.62632 14.85068 0 0 0
15 2.52032 -0.73405 15.80800 0 0 0
16 2.56072 -1.46683 16.46060 0 0 0
17 3.05514 -2.03453 17.01178 0 0 0
18 2.95438 -2.21373 17.90265 0 0 0
19 3.26401 -2.76104 18.68106 0 0 0
20 3.03546 -3.13080 19.59805 0 0 0
21 2.97646 -2.15508 19.90716 0 0 0
22 3.05831 -1.91456 20.90689 0 0 0
23 2.69377 -1.38510 21.51531 0 0 0
24 2.69484 -1.22979 22.50046 0 0 0
25 2.47780 -1.02180 23.37170 0 0 0
26 2.15846 -0.27190 23.99396 0 0 0
27 1.36040 0.18949 24.35783 0 0 0
28 0.81744 0.44896 25.20412 0 0 0
29 0.51227 0.41755 26.17604 0 0 0
30 0.33077 0.22768 27.15274 0 0 0
31 -0.01883 0.70146 27.92191 0 0 0
32 0.22604 0.15234 28.74097 0 0 0
33 -0.30806 0.48233 29.48565 0 0 0
34 -0.92169 0.65934 30.18408 0 0 0
35 -1.02680 1.18860 31.00249 0 0 0
36 -1.73334 1.44435 31.65621 0 0 0
37 -1.81499 0.64872 32.24212 0 0 0
38 -1.64377 0.87964 33.17429 0 0 0
39 -1.60670 0.53512 34.04747 0 0 0
40 -2.03701 0.66942 34.93721 0 0 0
41 -2.16307 0.41270 35.81753 0 0 0
42 -1.57654 0.58413 36.60265 0 0 0
43 -0.90292 0.36332 37.33677 0 0 0
44 -0.55173 -0.04848 38.15762 0 0 0
45 -0.97680 -0.00545 38.99205 0 0 0
46 -0.69474 -0.41774 39.87488 0 0 0
47 -0.65444 -0.85343 40.64904 0 0 0
48 -0.19852 -0.67903 41.53447 0 0 0
49 -0.32648 -1.01061 42.45112 0 0 0
50 0.17781 -1.16641 43.29861 0 0 0
51 0.44158 -1.30831 44.25190 0 0 0
52 0.47420 -1.41219 45.20760 0 0 0
53 0.76222 -1.11306 46.05748 0 0 0
54 0.49936 -0.35640 46.70344 0 0 0
55 0.39396 -0.80124 47.57552 0 0 0
56 0.47228 -0.88360 48.53945 0 0 0
57 0.59123 -0.67106 49.47335 0 0 0
58 0.74092 -0.92385 50.41569 0 0 0
59 0.82889 -1.07059 51.37888 0 0 0
60 1.33244 -0.87425 52.20507 0 0 0
61 0.65083 -0.52985 52.84606 0 0 0
62 0.57243 -0.21331 53.80873 0 0 0
63 0.42306 -0.24423 54.76031 0 0 0
64 -0.00298 0.09937 55.54308 0 0 0
65 0.61748 0.00288 56.29983 0 0 0
66 0.89905 -0.29595 57.25679 0 0 0
67 0.76804 -0.83179 58.02617 0 0 0
68 1.67596 -0.74800 58.55496 0 0 0
69 2.30000 -0.17435 58.93654 0 0 0
70 2.16965 0.65665 59.42158 0 0 0
71 2.18305 0.77339 60.42777 0 0 0
72 2.58192 1.64428 60.79533 0 0 0
73 3.00800 1.20250 61.47758 0 0 0
74 3.51897 0.65139 62.26280 0 0 0
75 4.37997 1.01976 62.62786 0 0 0
76 4.93416 1.03050 63.43671 0 0 0
77 5.51591 0.87597 64.21540 0 0 0
78 5.77930 1.21760 65.15447 0 0 0
79 6.61438 1.26215 65.56448 0 0 0
80 6.99564 2.03730 66.12748 0 0 0
81 7.03887 2.35345 67.06191 0 0 0
82 7.53079 2.50293 67.92306 0 0 0
83 7.73607 3.04566 68.73474 0 0 0
84 8.32965 3.20085 69.42250 0 0 0
85 8.85774 3.79074 69.99939 0 0 0
86 8.71287 3.68409 70.92491 0 0 0
87 9.41949 3.48387 71.49147 0 0 0
88 9.85192 4.22295 72.06092 0 0 0
89 10.74903 4.56588 71.95989 0 0 0
90 11.57760 5.02472 71.75894 0 0 0
91 11.84986 5.47414 72.60310 0 0 0
92 12.60257 5.23579 73.29722 0 0 0
93 13.19591 4.99349 74.05446 0 0 0
94 13.64017 5.69060 74.69897 0 0 0
95 13.92100 6.51062 75.32247 0 0 0
96 14.06564 6.49156 76.28110 0 0 0
97 13.79800 5.81990 77.00527 0 0 0
98 14.52087 6.23263 77.54700 0 0 0
99 15.34924 6.73560 77.54830 0 0 0
100 15.62563 7.39428 78.17251 0 0 0
101 15.87727 7.19035 79.10018 0 0 0
102 15.33821 7.46169 79.90397 0 0 0
103 15.69738 7.78685 80.71910 0 0 0
104 15.74344 8.39820 81.54276 0 0 0
105 16.18990 8.83201 82.34949 0 0 0
106 16.54340 9.33950 83.12673 0 0 0
107 17.35500 9.45685 83.60056 0 0 0
108 17.92427 10.22448 83.96348 0 0 0
109 18.26537 11.12695 84.16138 0 0 0
110 18.96418 11.73792 84.03525 0 0 0
111 20.00816 11.69708 84.12010 0 0 0
112 20.72078 11.50837 84.73573 0 0 0
113 21.00713 12.50790 84.94807 0 0 0
114 22.01616 12.73439 85.02249 0 0 0
115 22.39811 12.99600 85.92730 0 0 0
116 22.70221 13.37912 86.73099 0 0 0
117 23.38490 14.05723 86.91439 0 0 0
118 23.95730 13.85706 87.69663 0 0 0
119 23.30850 13.86885 88.51300 0 0 0
120 24.23022 14.11096 88.69531 0 0 0
121 23.99346 14.90593 89.21151 0 0 0
122 24.81683 15.09584 89.89197 0 0 0
123 25.76535 15.35224 90.11491 0 0 0
124 26.35145 16.01456 89.65031 0 0 0
125 27.11756 16.21020 90.22027 0 0 0
126 27.74019 16.93528 90.44740 0 0 0
127 28.26605 17.72022 90.28222 0 0 0
128 29.00521 18.48075 90.43694 0 0 0
129 28.44058 18.38045 91.27871 0 0 0
130 28.48180 17.80674 92.07772 0 0 0
131 28.53712 17.93134 93.02601 0 0 0
132 28.37595 17.20071 93.71364 0 0 0
133 27.67002 16.72944 94.20557 0 0 0
134 0.49942 -1.76723 57.92176 0 0 0
135 0.15671 -2.71742 57.82267 0 0 0
136 0.23803 -3.39762 58.52345 0 0 0
137 -0.71031 -3.62453 58.64865 0 0 0
138 -1.59825 -4.04951 58.94703 0 0 0
139 -2.09811 -4.74387 59.41562 0 0 0
140 -2.41879 -5.34504 58.79175 0 0 0
141 -2.82025 -6.19846 59.17900 0 0 0
142 -3.45410 -6.58081 59.90781 0 0 0
143 -3.92957 -7.28552 60.44663 0 0 0
144 -4.36287 -8.10647 60.87160 0 0 0
145 -4.95211 -8.58714 60.27014 0 0 0
146 -5.27260 -9.44405 59.85918 0 0 0
147 -5.90374 -9.64512 59.06827 0 0 0
148 -6.40512 -10.52309 59.29680 0 0 0
149 -6.99889 -11.30888 59.50376 0 0 0
150 -7.00542 -12.32245 59.58024 0 0 0
151 -7.70868 -13.01268 59.97284 0 0 0
152 -8.10377 -13.78834 60.39154 0 0 0
153 -8.30430 -14.71494 60.59435 0 0 0
154 -8.78174 -15.03384 59.71976 0 0 0
155 -9.47405 -15.65181 60.01155 0 0 0
156 -10.03582 -16.41719 59.81507 0 0 0
157 -10.65653 -16.79300 59.11704 0 0 0
158 -11.11615 -17.64613 58.88386 0 0 0
159 -11.30808 -18.61776 58.57626 0 0 0
160 -12.22271 -18.73988 58.05164 0 0 0
161 -13.17855 -18.65225 58.42993 0 0 0
162 -13.78805 -19.41832 58.67868 0 0 0
163 -13.55046 -19.78809 59.56991 0 0 0
164 -14.26562 -20.54577 59.49693 0 0 0
165 -14.18170 -21.44712 59.04834 0 0 0
166 -14.93844 -22.09438 59.01894 0 0 0
167 -15.63283 -22.81465 58.81616 0 0 0
168 -16.34756 -23.37168 58.46859 0 0 0
169 -16.95065 -24.05665 58.54945 0 0 0
170 -17.11005 -24.94828 58.17128 0 0 0
171 -17.64219 -25.72727 57.94064 0 0 0
172 -18.27509 -26.42173 57.48052 0 0 0
173 -19.04128 -26.46180 58.05426 0 0 0
174 -19.54809 -27.32243 58.32149 0 0 0
175 -19.93231 -28.24034 58.47002 0 0 0
176 -20.39499 -28.36632 59.36166 0 0 0
177 -21.10460 -28.83121 59.84106 0 0 0
178 -21.17751 -29.70170 60.23741 0 0 0
179 -21.73985 -30.48958 60.13575 0 0 0
180 -22.37304 -31.19394 60.18216 0 0 0
181 -23.00327 -31.86286 59.77337 0 0 0
182 -23.69921 -32.45590 60.28432 0 0 0
183 -24.07205 -33.26033 60.79449 0 0 0
184 -24.13294 -34.31482 61.01098 0 0 0
185 -24.42766 -35.30276 61.06275 0 0 0
186 -24.72546 -36.24373 61.14777 0 0 0
187 -25.54318 -36.70694 61.48891 0 0 0
188 -25.75362 -37.40792 62.11005 0 0 0
189 -26.31338 -37.05866 62.81000 0 0 0
190 -26.54988 -37.97605 62.39458 0 0 0
191 -26.41529 -38.61038 63.08327 0 0 0
192 -26.66306 -39.19259 63.88446 0 0 0
193 -27.28719 -39.71917 63.23674 0 0 0
194 -27.32573 -40.66487 63.29209 0 0 0
195 -28.20856 -41.00432 63.28946 0 0 0
196 -29.01535 -41.61206 63.56962 0 0 0
197 -28.85239 -42.43467 64.06535 0 0 0
198 -29.81307 -42.39064 63.85186 0 0 0
199 -29.92652 -42.37791 62.88137 0 0 0
ITEM: TIMESTEP
4000
ITEM: NUMBER OF ATOMS
199
ITEM: BOX BOUNDS pp pp pp
-1.0000000000000000e+03 1.0000000000000000e+03