ITEM: TIMESTEP
0
ITEM: NUMBER OF ATOMS
100
ITEM: BOX BOUNDS pp pp pp
-1.0000000000000000e+03 1.0000000000000000e+03
-1.0000000000000000e+03 1.0000000000000000e+03
-1.0000000000000000e+03 1.0000000000000000e+03
ITEM: ATOMS id x y z ix iy iz
1 0.00000 0.00000 0.00000 0 0 0
2 0.00000 0.00000 1.00000 0 0 0
3 0.00000 -0.50000 1.86603 0 0 0
4 0.00000 0.00000 2.73205 0 0 0
5 0.00000 -0.50000 3.59808 0 0 0
6 0.00000 0.00000 4.46410 0 0 0
7 0.00000 -0.50000 5.33013 0 0 0
8 0.00000 0.00000 6.19615 0 0 0
9 0.00000 -0.50000 7.06218 0 0 0
10 0.00000 0.00000 7.92820 0 0 0
11 0.00000 -0.50000 8.79423 0 0 0
12 0.00000 0.00000 9.66025 0 0 0
13 0.00000 -0.50000 10.52628 0 0 0
14 0.00000 0.00000 11.39230 0 0 0
15 0.00000 -0.50000 12.25833 0 0 0
16 0.00000 0.00000 13.12436 0 0 0
17 0.00000 -0.50000 13.99038 0 0 0
18 0.00000 0.00000 14.85641 0 0 0
19 0.00000 -0.50000 15.72243 0 0 0
20 0.00000 0.00000 16.58846 0 0 0
21 0.00000 -0.50000 17.45448 0 0 0
22 0.00000 0.00000 18.32051 0 0 0
23 0.00000 -0.50000 19.18653 0 0 0
24 0.00000 0.00000 20.05256 0 0 0
25 0.00000 -0.50000 20.91858 0 0 0
26 0.00000 0.00000 21.78461 0 0 0
27 0.00000 -0.50000 22.65064 0 0 0
28 0.00000 0.00000 23.51666 0 0 0
29 0.00000 -0.50000 24.38269 0 0 0
30 0.00000 0.00000 25.24871 0 0 0
31 0.00000 -0.50000 26.11474 0 0 0
32 0.00000 0.00000 26.98076 0 0 0
33 0.00000 -0.50000 27.84679 0 0 0
34 0.00000 0.00000 28.71281 0 0 0
35 -0.76414 -0.10294 29.34960 0 0 0
36 -1.52828 -0.51049 29.84960 0 0 0
37 -2.29241 -0.28125 30.45254 0 0 0
38 -3.05655 -0.68879 30.95254 0 0 0
39 -3.82069 -0.45955 31.55549 0 0 0
40 -4.58483 -0.86710 32.05549 0 0 0
41 -5.34897 -0.63786 32.65843 0 0 0
42 -6.11311 -1.04540 33.15843 0 0 0
43 -6.87724 -0.81616 33.76137 0 0 0
44 -7.64138 -1.22371 34.26137 0 0 0
45 -8.40552 -0.99447 34.86432 0 0 0
46 -9.16966 -1.40201 35.36432 0 0 0
47 -9.93380 -1.17277 35.96726 0 0 0
48 -10.69793 -1.58032 36.46726 0 0 0
49 -11.46207 -1.35108 37.07021 0 0 0
50 -12.22621 -1.75862 37.57021 0 0 0
51 -12.99035 -1.52938 38.17315 0 0 0
52 -13.75449 -1.93693 38.67315 0 0 0
53 -14.51863 -1.70769 39.27610 0 0 0
54 -15.28276 -2.11523 39.77610 0 0 0
55 -16.04690 -1.88599 40.37904 0 0 0
56 -16.81104 -2.29354 40.87904 0 0 0
57 -17.57518 -2.06429 41.48198 0 0 0
58 -18.33932 -2.47184 41.98198 0 0 0
59 -19.10345 -2.24260 42.58493 0 0 0
60 -19.86759 -2.65014 43.08493 0 0 0
61 -20.63173 -2.42090 43.68787 0 0 0
62 -21.39587 -2.82845 44.18787 0 0 0
63 -22.16001 -2.59921 44.79082 0 0 0
64 -22.92415 -3.00675 45.29082 0 0 0
65 -23.68828 -2.77751 45.89376 0 0 0
66 -24.45242 -3.18506 46.39376 0 0 0
67 -25.21656 -2.95582 46.99671 0 0 0
68 0.76414 0.60294 28.94205 0 0 0
69 1.52828 1.01049 29.44205 0 0 0
70 2.29241 1.64727 29.33911 0 0 0
71 3.05655 2.05482 29.83911 0 0 0
72 3.82069 2.69160 29.73616 0 0 0
73 4.58483 3.09915 30.23616 0 0 0
74 5.34897 3.73593 30.13322 0 0 0
75 6.11311 4.14348 30.63322 0 0 0
76 6.87724 4.78026 30.53028 0 0 0
77 7.64138 5.18781 31.03028 0 0 0
78 8.40552 5.82459 30.92733 0 0 0
79 9.16966 6.23214 31.42733 0 0 0
80 9.93380 6.86892 31.32439 0 0 0
81 10.69793 7.27647 31.82439 0 0 0
82 11.46207 7.91325 31.72144 0 0 0
83 12.22621 8.32080 32.22144 0 0 0
84 12.99035 8.95758 32.11850 0 0 0
85 13.75449 9.36513 32.61850 0 0 0
86 14.51863 10.00191 32.51556 0 0 0
87 15.28276 10.40946 33.01556 0 0 0
88 16.04690 11.04624 32.91261 0 0 0
89 16.81104 11.45379 33.41261 0 0 0
90 17.57518 12.09057 33.30967 0 0 0
91 18.33932 12.49812 33.80967 0 0 0
92 19.10345 13.13490 33.70672 0 0 0
93 19.86759 13.54245 34.20672 0 0 0
94 20.63173 14.17923 34.10378 0 0 0
95 21.39587 14.58678 34.60378 0 0 0
96 22.16001 15.22356 34.50083 0 0 0
97 22.92415 15.63111 35.00083 0 0 0
98 23.68828 16.26789 34.89789 0 0 0
99 24.45242 16.67544 35.39789 0 0 0
100 25.21656 17.31222 35.29495 0 0 0
ITEM: TIMESTEP
1000
ITEM: NUMBER OF ATOMS
100
ITEM: BOX BOUNDS pp pp pp
-1.0000000000000000e+03 1.0000000000000000e+03
-1.0000000000000000e+03 1.0000000000000000e+03
-1.0000000000000000e+03 1.0000000000000000e+03
ITEM: ATOMS id x y z ix iy iz
1 -2.57444 0.67658 4.27402 0 0 0
2 -1.80961 0.07448 4.27432 0 0 0
3 -0.91726 0.12459 4.68448 0 0 0
4 -0.11400 0.02533 5.12829 0 0 0
5 -0.07080 0.50399 5.95720 0 0 0
6 -0.36477 0.02844 6.70937 0 0 0
7 -0.82366 -0.13939 7.51351 0 0 0
8 -0.98784 -0.54469 8.33929 0 0 0
9 -0.78374 -1.19053 9.05490 0 0 0
10 -0.81341 -0.84530 9.94589 0 0 0
11 -1.05572 -0.38174 10.71402 0 0 0
12 -0.69656 -0.23786 11.69205 0 0 0
13 -0.80709 -0.03315 12.70786 0 0 0
14 -0.65403 -1.04509 12.76898 0 0 0
15 -0.61382 -1.91401 13.32358 0 0 0
16 -1.03590 -1.77809 14.25786 0 0 0
17 -0.66130 -1.96614 15.21641 0 0 0
18 -0.85391 -1.53515 16.07566 0 0 0
19 -1.61608 -1.59064 16.72070 0 0 0
20 -2.19280 -1.62342 17.62720 0 0 0
21 -1.72829 -1.32399 18.43709 0 0 0
22 -1.32630 -0.65829 18.93393 0 0 0
23 -1.16661 -0.34058 19.82837 0 0 0
24 -0.66431 0.08705 20.56032 0 0 0
25 -0.91236 0.18794 21.50589 0 0 0
26 -1.10404 0.07140 22.44908 0 0 0
27 -0.66277 0.67543 23.15482 0 0 0
28 -0.40164 1.04609 23.99413 0 0 0
29 -0.59482 0.75643 24.95322 0 0 0
30 -0.75930 1.23896 25.79622 0 0 0
31 -0.91850 1.60651 26.66701 0 0 0
32 -0.87291 1.83479 27.61837 0 0 0
33 -1.35658 2.25326 28.41394 0 0 0
34 -1.36791 2.54085 29.35608 0 0 0
35 -2.24353 2.78014 29.87147 0 0 0
36 -3.06778 2.16021 29.92115 0 0 0
37 -3.39214 1.44387 30.61420 0 0 0
38 -4.10713 1.62820 31.17612 0 0 0
39 -5.03784 1.21578 31.03745 0 0 0
40 -6.00866 1.06417 31.22364 0 0 0
41 -6.67927 0.29107 31.48904 0 0 0
42 -7.31092 0.06309 32.16572 0 0 0
43 -7.31859 -0.44700 32.97478 0 0 0
44 -7.68697 -0.82117 33.84299 0 0 0
45 -8.44370 -0.56515 34.42856 0 0 0
46 -9.11992 -0.19815 34.95421 0 0 0
47 -9.91594 -0.26988 35.56981 0 0 0
48 -10.51171 -0.60604 36.25672 0 0 0
49 -11.13441 -1.30368 36.62524 0 0 0
50 -11.99830 -1.75299 36.89734 0 0 0
51 -12.72137 -2.08052 37.56535 0 0 0
52 -12.84009 -2.42558 38.47565 0 0 0
53 -13.71599 -2.84793 38.39003 0 0 0
54 -14.64373 -3.00162 38.16131 0 0 0
55 -15.12035 -3.02470 39.05049 0 0 0
56 -15.87257 -2.46911 39.36002 0 0 0
57 -16.46397 -2.95938 38.79133 0 0 0
58 -17.24781 -3.43860 39.14543 0 0 0
59 -17.88958 -2.84081 39.69127 0 0 0
60 -18.58748 -2.74617 40.52136 0 0 0
61 -19.51711 -3.15789 40.64900 0 0 0
62 -19.91777 -3.82130 41.20147 0 0 0
63 -20.85347 -3.54189 41.16382 0 0 0
64 -21.22567 -2.75131 41.60366 0 0 0
65 -21.16932 -1.86100 42.10042 0 0 0
66 -20.99004 -0.99811 42.42028 0 0 0
67 -20.76849 -0.11024 42.08068 0 0 0
68 -0.85157 3.24987 29.83199 0 0 0
69 0.03882 2.87601 29.78053 0 0 0
70 0.68592 3.10943 30.49134 0 0 0
71 1.57327 3.25917 30.78863 0 0 0
72 2.52875 3.06521 30.99728 0 0 0
73 3.49382 3.22611 30.74179 0 0 0
74 4.40707 3.46350 31.14251 0 0 0
75 4.89741 4.34854 31.14511 0 0 0
76 5.73345 4.80004 31.38395 0 0 0
77 6.52583 4.83061 31.95070 0 0 0
78 6.86325 5.77918 31.84693 0 0 0
79 7.58570 6.37074 31.35467 0 0 0
80 8.16309 7.19553 31.06196 0 0 0
81 8.02358 8.15431 31.17279 0 0 0
82 8.72943 8.63839 31.66288 0 0 0
83 9.52293 8.71539 32.26261 0 0 0
84 10.18557 9.33325 31.83158 0 0 0
85 10.89453 9.50754 32.37977 0 0 0
86 11.86238 9.71973 32.38903 0 0 0
87 12.68827 9.69802 32.92791 0 0 0
88 13.62551 9.54114 32.69138 0 0 0
89 14.56027 9.69646 32.81419 0 0 0
90 15.07089 10.52357 33.02119 0 0 0
91 15.72031 11.14587 32.60048 0 0 0
92 16.48407 11.24111 33.10658 0 0 0
93 17.39719 11.64113 33.24270 0 0 0
94 17.18259 12.48924 33.59565 0 0 0
95 17.38774 13.46142 33.87905 0 0 0
96 17.69887 13.58132 34.85183 0 0 0
97 18.41582 13.02873 34.53236 0 0 0
98 19.28646 13.19195 34.96022 0 0 0
99 19.63647 14.12236 34.69886 0 0 0
100 20.39977 13.48500 34.73911 0 0 0
ITEM: TIMESTEP
2000
ITEM: NUMBER OF ATOMS
100
ITEM: BOX BOUNDS pp pp pp
-1.0000000000000000e+03 1.0000000000000000e+03
-1.0000000000000000e+03 1.0000000000000000e+03
-1.0000000000000000e+03 1.0000000000000000e+03
ITEM: ATOMS id x y z ix iy iz
1 -0.10927 -2.38441 7.06098 0 0 0
2 -0.58707 -2.43384 7.88984 0 0 0
3 -0.83775 -2.67969 8.80850 0 0 0
4 -0.56043 -2.15403 9.66196 0 0 0
5 -1.01676 -2.39414 10.44345 0 0 0
6 -1.31329 -1.41856 10.49276 0 0 0
7 -1.67421 -0.95933 11.25753 0 0 0
8 -1.72718 -0.34451 11.91578 0 0 0
9 -2.47262 0.37611 12.09189 0 0 0
10 -2.99956 0.97612 12.60567 0 0 0
11 -2.93240 1.86223 13.02465 0 0 0
12 -2.26716 2.21278 13.65188 0 0 0
13 -1.43055 2.17984 13.22737 0 0 0
14 -0.47898 2.27456 13.83973 0 0 0
15 -0.26662 1.97546 14.78950 0 0 0
16 -0.99386 1.88348 15.41201 0 0 0
17 -0.53726 0.95520 15.59868 0 0 0
18 -0.30089 0.23294 16.26596 0 0 0
19 0.54121 0.01749 16.65658 0 0 0
20 0.19215 0.33240 17.51505 0 0 0
21 -0.58563 0.87081 18.04154 0 0 0
22 -0.70643 0.72347 18.97836 0 0 0
23 -0.79399 0.37178 19.83859 0 0 0
24 -0.86683 0.17979 20.82894 0 0 0
25 -0.67857 0.97985 21.43331 0 0 0
26 -0.16908 0.48124 22.10039 0 0 0
27 0.04894 0.69772 23.04104 0 0 0
28 -0.54104 0.86267 23.83314 0 0 0
29 -0.38551 1.37305 24.62945 0 0 0
30 -1.00695 1.57004 25.33834 0 0 0
31 -0.48366 1.60617 26.16377 0 0 0
32 -0.31334 2.15645 26.90417 0 0 0
33 -0.44154 2.32445 27.90653 0 0 0
34 -0.45090 2.05138 28.87719 0 0 0
35 -0.65833 2.02450 29.81775 0 0 0
36 -1.62548 1.64766 30.02217 0 0 0
37 -2.50949 1.24806 29.82036 0 0 0
38 -3.28236 0.89123 30.28120 0 0 0
39 -4.24696 0.72272 30.12048 0 0 0
40 -5.17624 1.08010 30.31481 0 0 0
41 -5.96622 0.58636 30.61316 0 0 0
42 -6.74008 1.15895 30.67023 0 0 0
43 -7.03034 0.35025 31.12464 0 0 0
44 -7.38914 -0.23219 31.79368 0 0 0
45 -7.48371 -0.62508 32.68373 0 0 0
46 -8.10934 -0.82127 33.39108 0 0 0
47 -8.57811 -0.88412 34.18251 0 0 0
48 -9.29332 -1.49049 34.18158 0 0 0
49 -10.22532 -1.90648 34.17023 0 0 0
50 -11.00236 -1.68310 34.80899 0 0 0
51 -11.50984 -1.70540 35.57974 0 0 0
52 -12.42958 -1.92601 35.34489 0 0 0
53 -13.41919 -1.90837 35.43846 0 0 0
54 -14.21991 -1.87097 36.01708 0 0 0
55 -14.26483 -1.71487 37.02027 0 0 0
56 -14.78159 -1.17526 37.62757 0 0 0
57 -15.43332 -1.44369 38.19009 0 0 0
58 -15.96195 -2.27827 38.40329 0 0 0
59 -16.93200 -2.40259 38.67741 0 0 0
60 -17.64250 -2.40847 39.22303 0 0 0
61 -17.85861 -1.54533 39.74714 0 0 0
62 -18.47367 -1.54666 40.49019 0 0 0
63 -18.52391 -0.68507 40.97744 0 0 0
64 -18.68145 -0.87376 41.90273 0 0 0
65 -18.94291 -0.01939 42.29407 0 0 0
66 -19.82880 0.42102 42.06571 0 0 0
67 -20.57129 0.53554 42.74072 0 0 0
68 0.39327 1.38124 28.82802 0 0 0
69 0.71220 2.13345 28.40656 0 0 0
70 1.10455 2.85651 28.94189 0 0 0
71 1.42606 3.58576 29.61747 0 0 0
72 1.91161 4.17409 30.16384 0 0 0
73 2.53606 4.92867 30.26995 0 0 0
74 2.96555 5.73644 30.73013 0 0 0
75 3.32562 6.73481 30.64245 0 0 0
76 3.92222 7.15034 31.33415 0 0 0
77 4.66868 7.46113 31.85983 0 0 0
78 5.49645 7.56205 32.40069 0 0 0
79 6.20105 8.26526 32.42870 0 0 0
80 7.19004 8.36563 32.43266 0 0 0
81 7.98814 8.98701 32.67615 0 0 0
82 8.92814 9.40067 32.74839 0 0 0
83 8.75747 10.25139 32.23653 0 0 0
84 9.69524 10.37899 32.49416 0 0 0
85 10.00522 10.17577 33.38606 0 0 0
86 10.91545 10.32502 33.13358 0 0 0
87 11.86630 10.47650 33.31899 0 0 0
88 12.67178 10.00784 33.46004 0 0 0
89 13.45817 9.62647 33.09135 0 0 0
90 14.25481 9.63088 32.60893 0 0 0
91 15.06000 9.04204 32.60242 0 0 0
92 15.97361 9.22818 32.79384 0 0 0
93 16.87612 9.61972 32.60990 0 0 0
94 17.48725 10.28097 32.26037 0 0 0
95 17.67471 11.16366 32.36739 0 0 0
96 17.68026 11.34645 33.32512 0 0 0
97 17.48545 11.36152 34.27353 0 0 0
98 16.84578 11.28712 35.02460 0 0 0
99 16.56500 12.27365 35.10059 0 0 0
100 16.61272 12.99046 35.80246 0 0 0
ITEM: TIMESTEP
3000
ITEM: NUMBER OF ATOMS
100
ITEM: BOX BOUNDS pp pp pp
-1.0000000000000000e+03 1.0000000000000000e+03
-1.0000000000000000e+03 1.0000000000000000e+03
-1.0000000000000000e+03 1.0000000000000000e+03
ITEM: ATOMS id x y z ix iy iz
1 -0.19296 -1.42487 6.70704 0 0 0
2 0.14334 -2.19782 7.19942 0 0 0
3 0.08704 -1.77544 8.08464 0 0 0
4 -0.57714 -1.90111 8.82476 0 0 0
5 -0.90300 -1.02959 9.05640 0 0 0
6 -1.20436 -0.42768 9.75480 0 0 0
7 -1.14547 -0.88675 10.61731 0 0 0
8 -0.87193 -1.69021 10.99537 0 0 0
9 -0.75827 -1.23045 11.89176 0 0 0
10 -1.11487 -0.65642 12.70506 0 0 0
11 -1.21253 0.26027 13.08970 0 0 0
12 -0.94492 -0.09386 13.99715 0 0 0
13 -1.47696 -0.26003 14.80737 0 0 0
14 -1.61061 0.56438 15.33518 0 0 0
15 -1.36501 1.39298 15.61164 0 0 0
16 -0.58548 1.54767 16.07748 0 0 0
17 -0.53428 1.13637 17.02217 0 0 0
18 -0.31863 0.42838 17.62174 0 0 0
19 0.58016 0.59655 18.09910 0 0 0
20 0.45069 0.02809 18.96876 0 0 0
21 0.00709 0.91602 19.06453 0 0 0
22 -0.74785 0.31875 19.03003 0 0 0
23 -1.77628 0.43519 19.44621 0 0 0
24 -1.39402 0.59596 20.38299 0 0 0
25 -1.24480 0.88209 21.29840 0 0 0
26 -1.36914 0.83841 22.25567 0 0 0
27 -0.77374 1.46115 22.73147 0 0 0
28 -0.73058 1.63473 23.66174 0 0 0
29 0.03592 1.34201 24.32107 0 0 0
30 -0.46005 1.51526 25.21370 0 0 0
31 -0.07309 1.29921 26.12711 0 0 0
32 -0.96098 1.13245 26.57927 0 0 0
33 -1.43867 0.86907 27.38294 0 0 0
34 -1.44234 1.21073 28.28635 0 0 0
35 -2.28498 0.95101 28.79317 0 0 0
36 -1.52908 0.95227 29.44976 0 0 0
37 -1.83663 0.27327 30.18288 0 0 0
38 -2.75394 0.12926 30.06368 0 0 0
39 -3.65825 0.34591 30.51102 0 0 0
40 -4.14149 0.59367 31.39908 0 0 0
41 -4.69167 0.04548 31.91322 0 0 0
42 -4.81462 -0.71394 32.53426 0 0 0
43 -5.36762 -0.50693 33.33825 0 0 0
44 -5.79879 -0.02043 34.00892 0 0 0
45 -6.25636 0.68371 34.48121 0 0 0
46 -6.44554 1.64895 34.80388 0 0 0
47 -7.06831 0.80698 35.14650 0 0 0
48 -7.98512 1.33361 35.10226 0 0 0
49 -8.91323 1.05833 35.35152 0 0 0
50 -9.36844 0.26852 35.21471 0 0 0
51 -9.18019 -0.70135 35.43611 0 0 0
52 -9.99839 -0.87942 35.91693 0 0 0
53 -10.93422 -1.04048 36.22091 0 0 0
54 -11.53652 -0.49569 36.72866 0 0 0
55 -12.34506 -0.93992 36.34666 0 0 0
56 -13.26401 -0.76090 36.45332 0 0 0
57 -14.06474 -1.02159 36.94945 0 0 0
58 -14.16713 -0.09646 37.05002 0 0 0
59 -14.82022 0.19786 37.80588 0 0 0
60 -14.76273 0.02150 38.81325 0 0 0
61 -15.19037 -0.19621 39.71464 0 0 0
62 -16.15907 -0.27970 39.73575 0 0 0
63 -16.54175 -0.93396 40.27554 0 0 0
64 -17.48212 -0.74184 40.34146 0 0 0
65 -18.20728 -0.21805 40.76009 0 0 0
66 -18.56142 -0.29899 41.61905 0 0 0
67 -19.08239 0.28900 42.32222 0 0 0
68 -0.57993 1.55628 28.83351 0 0 0
69 0.20599 1.13436 29.28238 0 0 0
70 0.87674 1.90180 29.42141 0 0 0
71 1.36506 2.64960 29.93664 0 0 0
72 1.82255 3.48449 30.23160 0 0 0
73 2.72986 3.57100 30.29797 0 0 0
74 2.62352 4.58425 30.56904 0 0 0
75 3.21628 5.34102 30.72185 0 0 0
76 3.83277 6.15840 30.92259 0 0 0
77 3.82909 7.11096 30.82024 0 0 0
78 4.44607 7.81489 30.68874 0 0 0
79 5.30899 7.89914 31.23337 0 0 0
80 5.96378 8.02385 31.93293 0 0 0
81 6.82445 8.08965 32.41973 0 0 0
82 7.73230 8.13930 32.70012 0 0 0
83 8.39271 8.88984 32.65026 0 0 0
84 8.98169 9.54606 32.21856 0 0 0
85 9.77743 10.09052 32.18103 0 0 0
86 10.56370 9.43192 32.06126 0 0 0
87 10.76011 8.74314 31.32473 0 0 0
88 11.52475 8.55800 31.90473 0 0 0
89 11.80896 9.00038 32.76067 0 0 0
90 12.18231 9.01678 33.64736 0 0 0
91 13.05148 8.66627 33.67953 0 0 0
92 13.99838 8.76958 33.76575 0 0 0
93 14.03590 8.82947 32.77376 0 0 0
94 14.98595 8.98125 32.41408 0 0 0
95 15.38809 9.42477 33.18642 0 0 0
96 15.51812 10.30423 32.96267 0 0 0
97 15.15873 11.16857 32.76692 0 0 0
98 16.06753 11.45562 32.68606 0 0 0
99 16.75208 12.00603 33.26845 0 0 0
100 16.04525 12.68808 33.26898 0 0 0
ITEM: TIMESTEP
4000
ITEM: NUMBER OF ATOMS
100
ITEM: BOX BOUNDS pp pp pp
-1.0000000000000000e+03 1.0000000000000000e+03
-1.0000000000000000e+03 1.0000000000000000e+03
-1.0000000000000000e+03 1.0000000000000000e+03
ITEM: ATOMS id x y z ix iy iz
1 -0.54442 0.48005 9.85771 0 0 0
2 -0.30664 0.03261 8.98800 0 0 0
3 0.22704 -0.61515 9.45130 0 0 0
4 0.53350 -1.47464 9.95091 0 0 0
5 0.26837 -2.32029 10.37828 0 0 0
6 0.28835 -1.75443 11.17112 0 0 0
7 0.32048 -1.20719 11.90201 0 0 0
8 1.01288 -0.66942 12.20201 0 0 0
9 0.42323 -0.99294 12.92404 0 0 0
10 0.69743 -1.26326 13.87584 0 0 0
11 0.08630 -1.47705 14.68821 0 0 0
12 -0.89350 -1.59888 14.19246 0 0 0
13 -1.09859 -0.72636 14.78029 0 0 0
14 -2.11642 -0.51953 14.86182 0 0 0
15 -2.22913 -0.39207 15.79928 0 0 0
16 -1.61023 -0.25555 16.47842 0 0 0
17 -1.38228 0.32080 17.29085 0 0 0
18 -1.59422 -0.41134 17.80582 0 0 0
19 -1.24632 -0.26312 18.71538 0 0 0
20 -1.64370 0.67051 18.59593 0 0 0
21 -1.10858 0.36620 19.51360 0 0 0
22 -1.69514 0.13947 20.30691 0 0 0
23 -1.39860 0.14711 21.28079 0 0 0
24 -0.57107 -0.01691 21.74496 0 0 0
25 -1.07248 0.00352 22.59349 0 0 0
26 -1.42195 0.10748 23.46453 0 0 0
27 -1.37431 0.46176 24.39376 0 0 0
28 -0.80151 1.13708 25.01095 0 0 0
29 -0.87442 1.31119 26.08257 0 0 0
30 -0.94678 1.65253 27.05139 0 0 0
31 -0.78855 2.25270 27.85382 0 0 0
32 0.08433 1.88423 27.88460 0 0 0
33 0.83790 1.42283 28.30104 0 0 0
34 0.35001 2.08728 28.86719 0 0 0
35 0.08217 1.58103 29.62961 0 0 0
36 -0.07716 1.17075 30.50995 0 0 0
37 -0.73353 0.87871 31.17531 0 0 0
38 -1.62077 0.68529 30.83129 0 0 0
39 -2.42011 0.16621 31.13750 0 0 0
40 -3.32086 0.21879 31.45347 0 0 0
41 -3.50729 0.53474 32.33238 0 0 0
42 -4.46578 0.48551 32.23610 0 0 0
43 -5.34767 0.05934 32.23565 0 0 0
44 -6.16598 -0.27046 32.81993 0 0 0
45 -7.11023 -0.17624 33.22237 0 0 0
46 -7.97561 -0.18054 32.75956 0 0 0
47 -8.34263 -0.64656 33.56403 0 0 0
48 -7.96437 -1.45295 34.00584 0 0 0
49 -7.79131 -1.70236 34.96842 0 0 0
50 -8.13531 -1.13414 35.80283 0 0 0
51 -9.01750 -1.40836 35.53368 0 0 0
52 -9.50601 -1.04506 34.69103 0 0 0
53 -10.43426 -0.62001 34.86200 0 0 0
54 -10.65145 -0.35149 35.83192 0 0 0
55 -10.75113 0.23910 36.52020 0 0 0
56 -11.37743 0.70081 37.12163 0 0 0
57 -11.12433 1.02834 38.05978 0 0 0
58 -11.81117 1.69007 38.40502 0 0 0
59 -12.68232 1.38518 38.73817 0 0 0
60 -13.50384 0.92931 38.47389 0 0 0
61 -13.71355 0.43289 39.27296 0 0 0
62 -14.36121 0.75217 40.00316 0 0 0
63 -15.32442 0.44926 40.05980 0 0 0
64 -15.31969 -0.33871 39.53578 0 0 0
65 -16.08987 0.08160 38.99720 0 0 0
66 -16.49196 0.53682 38.21048 0 0 0
67 -16.19852 1.31297 37.73317 0 0 0
68 0.75088 2.87803 28.52503 0 0 0
69 1.68586 3.15999 28.80477 0 0 0
70 2.39001 3.03868 29.52565 0 0 0
71 3.08049 3.31331 30.19176 0 0 0
72 3.95558 3.72724 29.89041 0 0 0
73 4.22225 3.43388 30.73512 0 0 0
74 4.85238 4.11989 31.15847 0 0 0
75 4.98590 5.00208 31.64799 0 0 0
76 4.56652 5.75326 31.22091 0 0 0
77 5.15581 6.46562 31.41048 0 0 0
78 5.22197 6.68548 32.35798 0 0 0
79 4.66363 6.91477 33.08483 0 0 0
80 4.54082 7.22540 34.08971 0 0 0
81 5.38825 7.15989 34.58926 0 0 0
82 5.48672 8.22776 34.56067 0 0 0
83 6.21096 8.66647 34.19630 0 0 0
84 6.68317 9.24705 33.50968 0 0 0
85 7.24618 10.05505 33.59892 0 0 0
86 8.19792 9.96914 33.75404 0 0 0
87 8.93848 10.61401 33.63914 0 0 0
88 9.66249 11.19415 33.38888 0 0 0
89 10.62956 11.01975 33.00754 0 0 0
90 11.43589 11.26951 33.51680 0 0 0
91 12.38687 11.38414 33.47048 0 0 0
92 13.08722 11.63437 32.86036 0 0 0
93 13.01655 10.64950 32.75440 0 0 0
94 13.71291 10.63271 33.53643 0 0 0
95 14.61211 10.94404 33.73431 0 0 0
96 14.22278 11.06936 32.86475 0 0 0
97 14.95670 10.77938 32.23979 0 0 0
98 15.40270 11.64027 31.81707 0 0 0
99 15.26500 12.76815 31.81471 0 0 0
100 15.99457 13.43870 31.73347 0 0 0
ITEM: TIMESTEP
5000
ITEM: NUMBER OF ATOMS
100
ITEM: BOX BOUNDS pp pp pp
-1.0000000000000000e+03 1.0000000000000000e+03
-1.0000000000000000e+03 1.0000000000000000e+03
-1.0000000000000000e+03 1.0000000000000000e+03
ITEM: ATOMS id x y z ix iy iz
1 -0.76580 1.49617 9.16788 0 0 0
2 -0.37418 0.66268 9.61767 0 0 0
3 -0.51249 -0.06765 10.32504 0 0 0
4 -0.79710 0.63959 10.94754 0 0 0
5 0.11362 0.89376 10.70373 0 0 0
6 0.41219 0.49339 11.55672 0 0 0
7 1.24528 -0.11398 11.80924 0 0 0
8 1.84239 0.41523 12.34255 0 0 0
9 1.99629 1.28529 12.88361 0 0 0
10 2.26658 1.47575 13.86298 0 0 0
11 2.51217 1.42520 14.79672 0 0 0
12 1.84101 0.79955 15.16932 0 0 0
13 0.87419 0.63379 15.39175 0 0 0
14 0.15549 0.25940 15.86195 0 0 0
15 0.07749 0.70960 16.72567 0 0 0
16 0.41750 0.70390 17.58424 0 0 0
17 -0.12247 -0.11124 17.45024 0 0 0
18 -1.08296 0.20780 17.55985 0 0 0
19 -0.97330 0.34985 18.50609 0 0 0
20 -0.14629 0.34019 18.93777 0 0 0
21 0.26478 0.84191 19.62117 0 0 0
22 0.54119 0.36895 20.40890 0 0 0
23 -0.23133 0.45666 21.05813 0 0 0
24 -0.08445 1.09177 21.76833 0 0 0
25 -0.41631 1.38206 22.60441 0 0 0
26 -0.62379 1.31436 23.51380 0 0 0
27 -0.62474 1.60412 24.44898 0 0 0
28 -0.17658 1.81714 25.21574 0 0 0
29 0.25615 2.26013 25.99334 0 0 0
30 0.41602 1.96415 26.93781 0 0 0
31 0.06701 2.33020 27.77697 0 0 0
32 0.36601 2.18886 28.68393 0 0 0
33 -0.12897 2.74125 29.35549 0 0 0
34 -0.24785 1.81211 29.63441 0 0 0
35 -0.47332 1.10997 30.31854 0 0 0
36 -1.07052 1.41263 31.02024 0 0 0
37 -1.56680 1.01718 30.24663 0 0 0
38 -2.40321 0.42280 30.21970 0 0 0
39 -2.72779 0.18065 31.14024 0 0 0
40 -3.59906 -0.17695 31.51050 0 0 0
41 -4.40154 -0.81835 31.08506 0 0 0
42 -5.25606 -1.22609 31.43837 0 0 0
43 -5.65995 -1.23272 32.28343 0 0 0
44 -6.42947 -1.84393 32.31389 0 0 0
45 -7.08687 -1.66684 33.05649 0 0 0
46 -6.46834 -2.10374 33.71069 0 0 0
47 -6.30122 -3.09252 33.83952 0 0 0
48 -6.52013 -3.18954 34.75729 0 0 0
49 -6.85317 -2.31027 34.95218 0 0 0
50 -7.65428 -2.06175 35.54604 0 0 0
51 -8.01511 -1.09591 35.75824 0 0 0
52 -8.83530 -1.03537 35.19208 0 0 0
53 -9.15975 -0.22467 34.81156 0 0 0
54 -9.93928 -0.21197 35.44356 0 0 0
55 -10.85001 -0.40401 35.30126 0 0 0
56 -11.37947 -0.16498 36.12916 0 0 0
57 -11.68537 0.64607 36.56271 0 0 0
58 -11.36059 1.55055 36.34814 0 0 0
59 -11.81650 2.40697 36.43881 0 0 0
60 -11.98807 2.26055 37.41994 0 0 0
61 -12.92154 2.24908 37.86066 0 0 0
62 -13.58373 2.79753 37.41966 0 0 0
63 -14.55427 2.91005 37.29336 0 0 0
64 -15.15059 3.48329 37.88209 0 0 0
65 -16.12525 3.55331 38.33113 0 0 0
66 -16.96667 3.82338 37.96875 0 0 0
67 -17.64907 4.54245 38.17506 0 0 0
68 0.62995 1.78438 29.98117 0 0 0
69 1.23913 1.62147 30.71690 0 0 0
70 1.71312 2.23976 31.32795 0 0 0
71 2.07086 3.17340 30.98033 0 0 0
72 2.79910 3.27580 30.37448 0 0 0
73 3.16204 4.11974 30.72828 0 0 0
74 3.70364 4.63951 31.42018 0 0 0
75 4.26938 5.42903 31.50061 0 0 0
76 5.14120 5.64429 31.84966 0 0 0
77 5.76716 6.14376 31.24203 0 0 0
78 5.58002 6.80853 31.99802 0 0 0
79 5.79752 6.46755 32.94406 0 0 0
80 6.67266 6.82995 33.03972 0 0 0
81 7.34533 7.61831 33.08283 0 0 0
82 8.12367 8.15240 33.19187 0 0 0
83 8.46379 8.57279 33.95511 0 0 0
84 8.55914 9.43553 34.39585 0 0 0
85 9.18569 9.23737 33.67620 0 0 0
86 10.10346 9.23095 33.97027 0 0 0
87 10.46863 9.23108 34.84380 0 0 0
88 10.46241 9.42888 35.77243 0 0 0
89 10.35082 10.25735 35.29616 0 0 0
90 10.95258 11.08045 35.18415 0 0 0
91 11.52331 11.43753 34.48490 0 0 0
92 12.50333 11.66270 34.49878 0 0 0
93 13.20702 11.85199 33.82617 0 0 0
94 13.87621 12.09671 33.10086 0 0 0
95 14.44111 12.88478 32.92099 0 0 0
96 15.20780 13.48814 32.74351 0 0 0
97 15.05107 12.90792 31.89928 0 0 0
98 15.82522 12.88159 31.32799 0 0 0
99 16.35662 13.21376 30.60630 0 0 0
100 16.57196 13.58179 29.65168 0 0 0
ITEM: TIMESTEP
6000
ITEM: NUMBER OF ATOMS
100
ITEM: BOX BOUNDS pp pp pp
-1.0000000000000000e+03 1.0000000000000000e+03
-1.0000000000000000e+03 1.0000000000000000e+03
-1.0000000000000000e+03 1.0000000000000000e+03
ITEM: ATOMS id x y z ix iy iz
1 -1.92214 -2.54064 9.07585 0 0 0
2 -1.61495 -3.06199 9.82695 0 0 0
3 -1.94739 -2.46978 10.49417 0 0 0
4 -1.87775 -2.46776 11.47381 0 0 0
5 -1.15950 -2.29529 12.08050 0 0 0
6 -0.78706 -1.74807 12.85065 0 0 0
7 -0.16174 -1.13592 13.07042 0 0 0
8 0.26861 -0.39975 13.62417 0 0 0
9 0.31117 0.27057 14.44173 0 0 0
10 0.48028 0.51941 15.37623 0 0 0
11 1.31777 0.74344 15.91528 0 0 0
12 1.83633 1.42682 16.48373 0 0 0
13 2.35286 1.66610 17.28309 0 0 0
14 2.54870 1.95552 18.20377 0 0 0
15 2.63578 2.41933 19.10824 0 0 0
16 2.13016 2.69055 19.92662 0 0 0
17 1.22878 2.25571 20.19317 0 0 0
18 0.38309 1.78732 20.35487 0 0 0
19 0.61256 0.91058 20.71654 0 0 0
20 1.64265 0.95209 20.94220 0 0 0
21 1.84068 1.66770 21.64294 0 0 0
22 1.81516 1.30461 22.58990 0 0 0
23 2.56105 1.01631 23.07099 0 0 0
24 2.22743 0.39351 23.68226 0 0 0
25 2.64406 0.14310 24.55156 0 0 0
26 2.47488 -0.54082 25.29210 0 0 0
27 2.94232 -0.99579 26.11888 0 0 0
28 2.88936 -0.87736 27.03369 0 0 0
29 2.97734 -0.39070 27.90193 0 0 0
30 3.52655 0.34451 27.87886 0 0 0
31 3.98158 0.93561 28.68203 0 0 0
32 3.95951 1.87636 28.34037 0 0 0
33 3.12221 2.10558 28.75430 0 0 0
34 2.66787 2.38104 29.55932 0 0 0
35 1.94689 1.73996 29.67858 0 0 0
36 1.27590 1.14937 30.14950 0 0 0
37 0.49073 1.03662 30.81107 0 0 0
38 -0.01851 1.27689 31.61397 0 0 0
39 -0.72034 1.54404 32.22418 0 0 0
40 -1.37468 0.86690 32.27039 0 0 0
41 -1.63381 -0.08618 32.55680 0 0 0
42 -2.53334 0.04180 32.48130 0 0 0
43 -3.31000 -0.49836 32.36388 0 0 0
44 -3.72487 -0.35394 33.21861 0 0 0
45 -4.21811 -0.61395 33.97426 0 0 0
46 -5.02200 -1.12635 34.31911 0 0 0
47 -5.62389 -1.51380 34.91286 0 0 0
48 -6.54613 -1.81289 35.31810 0 0 0
49 -7.44813 -1.62509 35.73095 0 0 0
50 -8.34892 -1.78745 35.99401 0 0 0
51 -9.06850 -1.40422 36.55503 0 0 0
52 -9.88273 -0.88125 36.51078 0 0 0
53 -10.80599 -0.78820 36.72108 0 0 0
54 -10.57968 0.19781 36.97053 0 0 0
55 -11.42615 0.66371 37.03470 0 0 0
56 -12.23767 1.06468 36.63838 0 0 0
57 -12.96301 1.29112 37.33651 0 0 0
58 -13.66839 1.92131 37.14043 0 0 0
59 -14.38267 2.43983 36.75225 0 0 0
60 -13.77265 2.41404 35.88327 0 0 0
61 -14.54662 2.94855 35.41011 0 0 0
62 -15.20521 2.48668 36.06994 0 0 0
63 -15.63261 3.28658 36.33887 0 0 0
64 -16.39844 3.76930 36.11249 0 0 0
65 -16.38311 4.29984 35.31548 0 0 0
66 -16.41051 5.23272 34.99028 0 0 0
67 -17.00700 5.51010 35.67682 0 0 0
68 3.48464 2.94732 29.80518 0 0 0
69 2.73896 3.49379 30.18998 0 0 0
70 2.85233 4.16967 30.88362 0 0 0
71 3.61339 4.77796 30.74805 0 0 0
72 3.55375 4.90984 29.74079 0 0 0
73 4.33095 5.24964 29.14156 0 0 0
74 5.00839 5.62097 29.80996 0 0 0
75 4.99611 5.49030 30.78048 0 0 0
76 5.86142 5.95175 30.86752 0 0 0
77 5.35462 6.69451 30.52422 0 0 0
78 5.95479 7.26714 30.12092 0 0 0
79 6.70390 7.68162 30.48446 0 0 0
80 7.24714 8.46403 30.87597 0 0 0
81 7.77538 8.97277 31.58201 0 0 0
82 8.32958 8.46610 32.18514 0 0 0
83 9.00922 8.19010 32.81818 0 0 0
84 9.33982 8.62890 33.63429 0 0 0
85 9.10885 9.37714 33.07683 0 0 0
86 8.97743 10.27888 33.48798 0 0 0
87 9.52800 11.03343 33.71484 0 0 0
88 10.52823 11.06289 33.41536 0 0 0
89 11.38007 10.69291 32.90055 0 0 0
90 12.12598 10.37341 32.39666 0 0 0
91 11.96432 9.45536 32.02239 0 0 0
92 12.46418 8.89253 31.19530 0 0 0
93 13.24203 9.25183 31.68518 0 0 0
94 13.98283 9.72309 32.19528 0 0 0
95 14.38876 10.41989 32.73077 0 0 0
96 13.99890 11.18786 32.28920 0 0 0
97 13.14899 11.74712 32.43534 0 0 0
98 13.16305 12.37549 31.65487 0 0 0
99 13.60964 13.04873 32.23218 0 0 0
100 13.72033 13.46954 33.20000 0 0 0
ITEM: TIMESTEP
7000
ITEM: NUMBER OF ATOMS
100
ITEM: BOX BOUNDS pp pp pp
-1.0000000000000000e+03 1.0000000000000000e+03
-1.0000000000000000e+03 1.0000000000000000e+03
-1.0000000000000000e+03 1.0000000000000000e+03
ITEM: ATOMS id x y z ix iy iz
1 0.41542 -3.06634 13.80497 0 0 0
2 0.97470 -2.20588 13.90172 0 0 0
3 0.81264 -1.32864 13.52249 0 0 0
4 0.11926 -0.80227 13.06990 0 0 0
5 -0.51891 -0.07020 13.09362 0 0 0
6 -1.31185 -0.42644 13.47625 0 0 0
7 -0.89846 -0.51641 14.32630 0 0 0
8 -0.40180 -1.00226 15.05004 0 0 0
9 0.29340 -1.48234 15.58274 0 0 0
10 1.08190 -0.93770 15.68579 0 0 0
11 1.64715 -0.19895 16.08306 0 0 0
12 2.15024 0.72105 16.20726 0 0 0
13 2.35789 0.78855 17.24248 0 0 0
14 2.45629 1.34874 18.06784 0 0 0
15 3.23968 1.80250 17.75061 0 0 0
16 3.89279 2.17914 18.42787 0 0 0
17 4.16410 2.96011 19.07423 0 0 0
18 3.62019 3.50457 19.65249 0 0 0
19 4.21402 3.60606 20.42756 0 0 0
20 4.56594 3.56937 21.33673 0 0 0
21 4.61068 3.03687 22.25436 0 0 0
22 5.13882 2.57510 22.96433 0 0 0
23 5.17337 2.02320 23.79139 0 0 0
24 4.54729 1.34106 24.03018 0 0 0
25 4.13181 1.66854 24.82775 0 0 0
26 3.71820 1.19384 25.57789 0 0 0
27 2.73912 1.10707 25.62270 0 0 0
28 3.08241 0.59675 26.39787 0 0 0
29 2.94801 0.28684 27.32456 0 0 0
30 2.59713 -0.26581 28.10807 0 0 0
31 1.75219 0.14996 28.55039 0 0 0
32 2.10789 1.08367 28.50836 0 0 0
33 1.71620 1.93229 28.84008 0 0 0
34 1.93864 1.85620 29.89078 0 0 0
35 2.26424 1.05906 30.37089 0 0 0
36 1.76585 1.46592 31.12578 0 0 0
37 0.91504 0.97739 31.04961 0 0 0
38 0.19473 0.63985 31.61387 0 0 0
39 -0.80003 0.44484 31.88179 0 0 0
40 -1.17254 0.66526 32.77597 0 0 0
41 -1.86260 0.83517 33.44104 0 0 0
42 -2.31122 0.36540 34.25571 0 0 0
43 -3.02399 1.04530 34.08367 0 0 0
44 -3.84981 0.94299 34.55619 0 0 0
45 -4.80610 0.97669 34.37779 0 0 0
46 -5.40051 1.32359 35.15051 0 0 0
47 -5.53018 0.66402 35.89833 0 0 0
48 -6.48987 0.26821 35.82303 0 0 0
49 -7.41365 -0.10327 35.76508 0 0 0
50 -8.02388 -0.75938 35.28097 0 0 0
51 -8.89045 -0.88590 34.87890 0 0 0
52 -9.77761 -1.24960 35.03339 0 0 0
53 -10.44851 -1.29738 35.84988 0 0 0
54 -10.95518 -0.45033 35.99577 0 0 0
55 -11.79941 -0.89754 36.18793 0 0 0
56 -12.33676 -0.19986 36.63066 0 0 0
57 -12.48549 0.54021 37.34834 0 0 0
58 -12.84057 1.43731 37.08184 0 0 0
59 -13.34363 2.15319 37.47362 0 0 0
60 -14.14161 2.73159 37.61417 0 0 0
61 -14.95967 3.30649 37.61447 0 0 0
62 -15.68904 3.86828 37.23952 0 0 0
63 -15.81680 3.10044 36.65780 0 0 0
64 -16.22845 3.83938 36.13689 0 0 0
65 -16.05514 4.76976 35.96130 0 0 0
66 -17.02692 5.13332 35.76884 0 0 0
67 -17.01413 6.02214 35.28951 0 0 0
68 1.72887 2.72936 29.56109 0 0 0
69 2.44208 2.78404 30.27405 0 0 0
70 2.40676 3.56225 31.01825 0 0 0
71 2.48572 4.35622 30.49372 0 0 0
72 2.85971 4.66237 31.35110 0 0 0
73 3.13218 5.24851 32.03618 0 0 0
74 3.13834 6.15649 32.35814 0 0 0
75 3.71646 6.42412 33.11552 0 0 0
76 4.36263 7.10132 33.57116 0 0 0
77 5.11849 7.83459 33.77710 0 0 0
78 5.70151 8.46774 34.13224 0 0 0
79 6.45363 8.62719 33.57971 0 0 0
80 6.53746 8.30749 32.68103 0 0 0
81 7.25618 7.99689 32.12952 0 0 0
82 8.12128 7.50812 32.16769 0 0 0
83 7.80371 7.87833 33.07061 0 0 0
84 8.28023 8.64842 32.57858 0 0 0
85 9.14920 9.08242 32.48427 0 0 0
86 9.90255 9.70325 32.48929 0 0 0
87 10.81469 9.99417 32.87151 0 0 0
88 11.54590 10.66909 32.85809 0 0 0
89 11.83107 10.26863 33.70258 0 0 0
90 12.58286 9.84272 34.06124 0 0 0
91 13.27659 9.08582 33.89252 0 0 0
92 13.80623 9.19344 33.08418 0 0 0
93 14.08379 9.95020 32.53193 0 0 0
94 14.74220 10.46899 32.06163 0 0 0
95 14.50535 11.36826 31.96121 0 0 0
96 14.19255 11.45240 32.90678 0 0 0
97 15.21233 11.44154 32.86609 0 0 0
98 16.16495 11.56534 33.12013 0 0 0
99 16.96885 11.71821 32.43082 0 0 0