ITEM: TIMESTEP
0
ITEM: NUMBER OF ATOMS
301
ITEM: BOX BOUNDS pp pp pp
-1.0000000000000000e+03 1.0000000000000000e+03
-1.0000000000000000e+03 1.0000000000000000e+03
-1.0000000000000000e+03 1.0000000000000000e+03
ITEM: ATOMS id x y z ix iy iz
1 0.00000 0.00000 0.00000 0 0 0
2 0.00000 0.00000 1.00000 0 0 0
3 0.00000 -0.50000 1.86603 0 0 0
4 0.00000 0.00000 2.73205 0 0 0
5 0.00000 -0.50000 3.59808 0 0 0
6 0.00000 0.00000 4.46410 0 0 0
7 0.00000 -0.50000 5.33013 0 0 0
8 0.00000 0.00000 6.19615 0 0 0
9 0.00000 -0.50000 7.06218 0 0 0
10 0.00000 0.00000 7.92820 0 0 0
11 0.00000 -0.50000 8.79423 0 0 0
12 0.00000 0.00000 9.66025 0 0 0
13 0.00000 -0.50000 10.52628 0 0 0
14 0.00000 0.00000 11.39230 0 0 0
15 0.00000 -0.50000 12.25833 0 0 0
16 0.00000 0.00000 13.12436 0 0 0
17 0.00000 -0.50000 13.99038 0 0 0
18 0.00000 0.00000 14.85641 0 0 0
19 0.00000 -0.50000 15.72243 0 0 0
20 0.00000 0.00000 16.58846 0 0 0
21 0.00000 -0.50000 17.45448 0 0 0
22 0.00000 0.00000 18.32051 0 0 0
23 0.00000 -0.50000 19.18653 0 0 0
24 0.00000 0.00000 20.05256 0 0 0
25 0.00000 -0.50000 20.91858 0 0 0
26 0.00000 0.00000 21.78461 0 0 0
27 0.00000 -0.50000 22.65064 0 0 0
28 0.00000 0.00000 23.51666 0 0 0
29 0.00000 -0.50000 24.38269 0 0 0
30 0.00000 0.00000 25.24871 0 0 0
31 0.00000 -0.50000 26.11474 0 0 0
32 -0.62378 -1.27895 26.05045 0 0 0
33 -1.24755 -1.92141 25.60531 0 0 0
34 -1.87133 -2.62814 25.93911 0 0 0
35 -2.49511 -3.27060 25.49396 0 0 0
36 -3.11888 -3.97733 25.82777 0 0 0
37 -3.74266 -4.61979 25.38262 0 0 0
38 -4.36644 -5.32652 25.71643 0 0 0
39 -4.99021 -5.96898 25.27128 0 0 0
40 -5.61399 -6.67571 25.60509 0 0 0
41 -6.23777 -7.31817 25.15994 0 0 0
42 -6.86154 -8.02490 25.49375 0 0 0
43 -7.48532 -8.66735 25.04860 0 0 0
44 -8.10909 -9.37409 25.38241 0 0 0
45 -8.73287 -10.01654 24.93726 0 0 0
46 -9.35665 -10.72328 25.27107 0 0 0
47 -9.98042 -11.36573 24.82592 0 0 0
48 -10.60420 -12.07247 25.15973 0 0 0
49 -11.22798 -12.71492 24.71458 0 0 0
50 -11.85175 -13.42166 25.04838 0 0 0
51 -12.47553 -14.06411 24.60324 0 0 0
52 -13.09931 -14.77085 24.93704 0 0 0
53 -13.72308 -15.41330 24.49190 0 0 0
54 -14.34686 -16.12004 24.82570 0 0 0
55 -14.97064 -16.76249 24.38055 0 0 0
56 -15.59441 -17.46923 24.71436 0 0 0
57 -16.21819 -18.11168 24.26921 0 0 0
58 -16.84197 -18.81842 24.60302 0 0 0
59 -17.46574 -19.46087 24.15787 0 0 0
60 -18.08952 -20.16760 24.49168 0 0 0
61 -18.71330 -20.81006 24.04653 0 0 0
62 -0.30016 0.10695 26.85061 0 0 0
63 -0.60033 0.26466 27.79137 0 0 0
64 -0.90049 1.15823 28.12518 0 0 0
65 -1.20065 1.31593 29.06594 0 0 0
66 -1.50082 2.20951 29.39975 0 0 0
67 -1.80098 2.36721 30.34051 0 0 0
68 -2.10114 3.26078 30.67431 0 0 0
69 -2.40130 3.41849 31.61508 0 0 0
70 -2.70147 4.31206 31.94888 0 0 0
71 -3.00163 4.46976 32.88964 0 0 0
72 -3.30179 5.36334 33.22345 0 0 0
73 -3.60196 5.52104 34.16421 0 0 0
74 -3.90212 6.41461 34.49802 0 0 0
75 -4.20228 6.57231 35.43878 0 0 0
76 -4.50245 7.46589 35.77259 0 0 0
77 -4.80261 7.62359 36.71335 0 0 0
78 -5.10277 8.51716 37.04716 0 0 0
79 -5.40294 8.67487 37.98792 0 0 0
80 -5.70310 9.56844 38.32172 0 0 0
81 -6.00326 9.72614 39.26249 0 0 0
82 -6.30343 10.61972 39.59629 0 0 0
83 -6.60359 10.77742 40.53705 0 0 0
84 -6.90375 11.67099 40.87086 0 0 0
85 -7.20391 11.82870 41.81162 0 0 0
86 -7.50408 12.72227 42.14543 0 0 0
87 -7.80424 12.87997 43.08619 0 0 0
88 -8.10440 13.77355 43.42000 0 0 0
89 -8.40457 13.93125 44.36076 0 0 0
90 -8.70473 14.82482 44.69457 0 0 0
91 -9.00489 14.98252 45.63533 0 0 0
92 0.92394 -0.82871 26.31040 0 0 0
93 1.84788 -1.21121 26.31550 0 0 0
94 2.77182 -1.39805 26.64931 0 0 0
95 3.69576 -1.78056 26.65440 0 0 0
96 4.61970 -1.96740 26.98821 0 0 0
97 5.54364 -2.34990 26.99331 0 0 0
98 6.46758 -2.53674 27.32711 0 0 0
99 7.39152 -2.91924 27.33221 0 0 0
100 8.31546 -3.10608 27.66602 0 0 0
101 9.23940 -3.48859 27.67111 0 0 0
102 10.16334 -3.67542 28.00492 0 0 0
103 11.08728 -4.05793 28.01002 0 0 0
104 12.01122 -4.24477 28.34382 0 0 0
105 12.93515 -4.62727 28.34892 0 0 0
106 13.85909 -4.81411 28.68273 0 0 0
107 14.78303 -5.19661 28.68782 0 0 0
108 15.70697 -5.38345 29.02163 0 0 0
109 16.63091 -5.76596 29.02673 0 0 0
110 17.55485 -5.95279 29.36054 0 0 0
111 18.47879 -6.33530 29.36563 0 0 0
112 19.40273 -6.52214 29.69944 0 0 0
113 20.32667 -6.90464 29.70454 0 0 0
114 21.25061 -7.09148 30.03834 0 0 0
115 22.17455 -7.47398 30.04344 0 0 0
116 23.09849 -7.66082 30.37725 0 0 0
117 24.02243 -8.04333 30.38234 0 0 0
118 24.94637 -8.23016 30.71615 0 0 0
119 25.87031 -8.61267 30.72125 0 0 0
120 26.79425 -8.79951 31.05505 0 0 0
121 27.71819 -9.18201 31.06015 0 0 0
122 27.95922 -9.48477 30.13806 0 0 0
123 28.20026 -9.28591 29.18814 0 0 0
124 28.44129 -10.00915 28.54096 0 0 0
125 28.68233 -9.81030 27.59104 0 0 0
126 28.92336 -10.53353 26.94386 0 0 0
127 29.16440 -10.33468 25.99394 0 0 0
128 29.40544 -11.05792 25.34676 0 0 0
129 29.64647 -10.85907 24.39684 0 0 0
130 29.88751 -11.58230 23.74967 0 0 0
131 30.12854 -11.38345 22.79974 0 0 0
132 30.36958 -12.10669 22.15257 0 0 0
133 30.61061 -11.90784 21.20264 0 0 0
134 30.85165 -12.63107 20.55547 0 0 0
135 31.09268 -12.43222 19.60554 0 0 0
136 31.33372 -13.15546 18.95837 0 0 0
137 31.57475 -12.95660 18.00844 0 0 0
138 31.81579 -13.67984 17.36127 0 0 0
139 32.05682 -13.48099 16.41134 0 0 0
140 32.29786 -14.20422 15.76417 0 0 0
141 32.53889 -14.00537 14.81424 0 0 0
142 32.77993 -14.72861 14.16707 0 0 0
143 33.02096 -14.52976 13.21714 0 0 0
144 33.26200 -15.25299 12.56997 0 0 0
145 33.50303 -15.05414 11.62004 0 0 0
146 33.74407 -15.77738 10.97287 0 0 0
147 33.98510 -15.57853 10.02294 0 0 0
148 34.22614 -16.30176 9.37577 0 0 0
149 34.46717 -16.10291 8.42584 0 0 0
150 34.70821 -16.82615 7.77867 0 0 0
151 34.94924 -16.62730 6.82874 0 0 0
152 27.75351 -9.96103 31.68615 0 0 0
153 27.78884 -10.94869 31.83877 0 0 0
154 27.82416 -11.31034 32.77041 0 0 0
155 27.85948 -12.29800 32.92303 0 0 0
156 27.89481 -12.65965 33.85468 0 0 0
157 27.93013 -13.64730 34.00730 0 0 0
158 27.96545 -14.00896 34.93894 0 0 0
159 28.00078 -14.99661 35.09156 0 0 0
160 28.03610 -15.35826 36.02320 0 0 0
161 28.07142 -16.34592 36.17582 0 0 0
162 28.10675 -16.70757 37.10747 0 0 0
163 28.14207 -17.69522 37.26009 0 0 0
164 28.17739 -18.05688 38.19173 0 0 0
165 28.21272 -19.04453 38.34435 0 0 0
166 28.24804 -19.40618 39.27599 0 0 0
167 28.28336 -20.39384 39.42861 0 0 0
168 28.31869 -20.75549 40.36026 0 0 0
169 28.35401 -21.74315 40.51288 0 0 0
170 28.38933 -22.10480 41.44452 0 0 0
171 28.42466 -23.09245 41.59714 0 0 0
172 28.45998 -23.45411 42.52878 0 0 0
173 28.49530 -24.44176 42.68140 0 0 0
174 28.53063 -24.80341 43.61305 0 0 0
175 28.56595 -25.79107 43.76567 0 0 0
176 28.60127 -26.15272 44.69731 0 0 0
177 28.63660 -27.14037 44.84993 0 0 0
178 28.67192 -27.50203 45.78157 0 0 0
179 28.70724 -28.48968 45.93419 0 0 0
180 28.74257 -28.85134 46.86584 0 0 0
181 28.77789 -29.83899 47.01846 0 0 0
182 28.36708 -8.48328 31.36134 0 0 0
183 29.01598 -8.02876 31.97154 0 0 0
184 29.66487 -7.27305 31.88302 0 0 0
185 30.31376 -6.81853 32.49322 0 0 0
186 30.96266 -6.06282 32.40469 0 0 0
187 31.61155 -5.60829 33.01490 0 0 0
188 32.26044 -4.85258 32.92637 0 0 0
189 32.90934 -4.39806 33.53657 0 0 0
190 33.55823 -3.64235 33.44805 0 0 0
191 34.20712 -3.18783 34.05825 0 0 0
192 34.85602 -2.43212 33.96972 0 0 0
193 35.50491 -1.97759 34.57993 0 0 0
194 36.15381 -1.22188 34.49140 0 0 0
195 36.80270 -0.76736 35.10160 0 0 0
196 37.45159 -0.01165 35.01308 0 0 0
197 38.10049 0.44287 35.62328 0 0 0
198 38.74938 1.19858 35.53475 0 0 0
199 39.39827 1.65311 36.14496 0 0 0
200 40.04717 2.40882 36.05643 0 0 0
201 40.69606 2.86334 36.66663 0 0 0
202 41.34495 3.61905 36.57811 0 0 0
203 41.99385 4.07357 37.18831 0 0 0
204 42.64274 4.82928 37.09978 0 0 0
205 43.29163 5.28381 37.70999 0 0 0
206 43.94053 6.03952 37.62146 0 0 0
207 44.58942 6.49404 38.23166 0 0 0
208 45.23832 7.24975 38.14314 0 0 0
209 45.88721 7.70427 38.75334 0 0 0
210 46.53610 8.45998 38.66481 0 0 0
211 47.18500 8.91451 39.27502 0 0 0
212 47.70295 9.59872 38.76162 0 0 0
213 48.22089 10.44797 38.65911 0 0 0
214 48.73884 10.78382 37.87238 0 0 0
215 49.25679 11.63306 37.76987 0 0 0
216 49.77474 11.96891 36.98315 0 0 0
217 50.29269 12.81816 36.88064 0 0 0
218 50.81064 13.15401 36.09392 0 0 0
219 51.32859 14.00325 35.99141 0 0 0
220 51.84654 14.33910 35.20468 0 0 0
221 52.36449 15.18835 35.10217 0 0 0
222 52.88244 15.52420 34.31545 0 0 0
223 53.40039 16.37344 34.21294 0 0 0
224 53.91834 16.70929 33.42622 0 0 0
225 54.43628 17.55854 33.32371 0 0 0
226 54.95423 17.89439 32.53698 0 0 0
227 55.47218 18.74363 32.43447 0 0 0
228 55.99013 19.07948 31.64775 0 0 0
229 56.50808 19.92873 31.54524 0 0 0
230 57.02603 20.26457 30.75852 0 0 0
231 57.54398 21.11382 30.65601 0 0 0
232 58.06193 21.44967 29.86928 0 0 0
233 58.57988 22.29892 29.76677 0 0 0
234 59.09783 22.63476 28.98005 0 0 0
235 59.61578 23.48401 28.87754 0 0 0
236 60.13373 23.81986 28.09082 0 0 0
237 60.65167 24.66911 27.98831 0 0 0
238 61.16962 25.00495 27.20158 0 0 0
239 61.68757 25.85420 27.09907 0 0 0
240 62.20552 26.19005 26.31235 0 0 0
241 62.72347 27.03930 26.20984 0 0 0
242 47.81459 8.23776 39.65663 0 0 0
243 48.44419 7.46088 39.64874 0 0 0
244 49.07378 7.06561 40.31760 0 0 0
245 49.70338 6.28872 40.30972 0 0 0
246 50.33297 5.89345 40.97857 0 0 0
247 50.96257 5.11657 40.97069 0 0 0
248 51.59216 4.72130 41.63955 0 0 0
249 52.22176 3.94442 41.63166 0 0 0
250 52.85135 3.54915 42.30052 0 0 0
251 53.48095 2.77226 42.29264 0 0 0
252 54.11054 2.37699 42.96149 0 0 0
253 54.74014 1.60011 42.95361 0 0 0
254 55.36973 1.20484 43.62247 0 0 0
255 55.99933 0.42795 43.61458 0 0 0
256 56.62892 0.03268 44.28344 0 0 0
257 57.25852 -0.74420 44.27555 0 0 0
258 57.88811 -1.13947 44.94441 0 0 0
259 58.51771 -1.91635 44.93653 0 0 0
260 59.14730 -2.31162 45.60539 0 0 0
261 59.77690 -3.08851 45.59750 0 0 0
262 60.40649 -3.48378 46.26636 0 0 0
263 61.03609 -4.26066 46.25847 0 0 0
264 61.66568 -4.65593 46.92733 0 0 0
265 62.29528 -5.43282 46.91945 0 0 0
266 62.92487 -5.82809 47.58830 0 0 0
267 63.55447 -6.60497 47.58042 0 0 0
268 64.18406 -7.00024 48.24928 0 0 0
269 64.81366 -7.77712 48.24139 0 0 0
270 65.44325 -8.17239 48.91025 0 0 0
271 66.07285 -8.94928 48.90237 0 0 0
272 46.68727 9.36220 40.01787 0 0 0
273 46.18954 9.37849 40.88505 0 0 0
274 45.69181 10.13763 41.30453 0 0 0
275 45.19408 10.15392 42.17171 0 0 0
276 44.69635 10.91307 42.59120 0 0 0
277 44.19862 10.92935 43.45838 0 0 0
278 43.70090 11.68850 43.87786 0 0 0
279 43.20317 11.70479 44.74504 0 0 0
280 42.70544 12.46393 45.16453 0 0 0
281 42.20771 12.48022 46.03171 0 0 0
282 41.70998 13.23936 46.45119 0 0 0
283 41.21225 13.25565 47.31837 0 0 0
284 40.71452 14.01479 47.73785 0 0 0
285 40.21679 14.03108 48.60503 0 0 0
286 39.71906 14.79023 49.02452 0 0 0
287 39.22134 14.80651 49.89170 0 0 0
288 38.72361 15.56566 50.31118 0 0 0
289 38.22588 15.58195 51.17836 0 0 0
290 37.72815 16.34109 51.59784 0 0 0
291 37.23042 16.35738 52.46502 0 0 0
292 36.73269 17.11652 52.88451 0 0 0
293 36.23496 17.13281 53.75169 0 0 0
294 35.73723 17.89195 54.17117 0 0 0
295 35.23951 17.90824 55.03835 0 0 0
296 34.74178 18.66739 55.45784 0 0 0
297 34.24405 18.68367 56.32501 0 0 0
298 33.74632 19.44282 56.74450 0 0 0
299 33.24859 19.45911 57.61168 0 0 0
300 32.75086 20.21825 58.03116 0 0 0
301 32.25313 20.23454 58.89834 0 0 0
ITEM: TIMESTEP
1000
ITEM: NUMBER OF ATOMS
301
ITEM: BOX BOUNDS pp pp pp
-1.0000000000000000e+03 1.0000000000000000e+03
-1.0000000000000000e+03 1.0000000000000000e+03
-1.0000000000000000e+03 1.0000000000000000e+03
ITEM: ATOMS id x y z ix iy iz
1 1.03196 -0.19903 5.03314 0 0 0
2 1.27559 0.68840 5.38521 0 0 0
3 0.91668 1.04430 6.31456 0 0 0
4 0.01629 0.70960 6.58199 0 0 0
5 -0.78543 0.30102 6.91105 0 0 0
6 -0.49279 -0.12543 7.69259 0 0 0
7 -0.46418 0.10030 8.61691 0 0 0
8 0.37678 -0.10273 9.07684 0 0 0
9 0.93710 -0.90506 9.14771 0 0 0
10 0.12328 -1.49489 9.37030 0 0 0
11 -0.04402 -1.89272 10.21477 0 0 0
12 -0.27926 -1.48789 11.01430 0 0 0
13 -0.13357 -1.25840 12.05906 0 0 0
14 -0.63746 -1.00962 12.81407 0 0 0
15 -1.18372 -1.01578 13.69241 0 0 0
16 -1.21561 -0.89114 14.64591 0 0 0
17 -0.67487 -1.01877 15.49797 0 0 0
18 -0.39301 -1.37662 16.36354 0 0 0
19 -0.32881 -1.94350 17.16543 0 0 0
20 0.11075 -1.51390 17.96136 0 0 0
21 0.26844 -1.52427 18.92601 0 0 0
22 0.11576 -1.29823 19.86509 0 0 0
23 0.78980 -1.53516 20.54866 0 0 0
24 0.61535 -2.28603 21.23719 0 0 0
25 0.70743 -2.04455 22.20382 0 0 0
26 0.73993 -2.15331 23.21421 0 0 0
27 1.04170 -1.77431 24.01012 0 0 0
28 0.15016 -1.50471 24.65800 0 0 0
29 0.51356 -0.63028 25.10785 0 0 0
30 0.50812 -1.35424 25.75320 0 0 0
31 0.50751 -1.94532 26.53791 0 0 0
32 0.02512 -2.85015 26.43000 0 0 0
33 -0.94203 -2.58157 26.35320 0 0 0
34 -1.65471 -2.92948 25.78124 0 0 0
35 -1.85637 -3.85892 25.84788 0 0 0
36 -2.84797 -4.34014 25.47403 0 0 0
37 -3.24074 -5.13690 25.87830 0 0 0
38 -4.09229 -5.37129 26.17522 0 0 0
39 -4.74822 -6.00922 26.38869 0 0 0
40 -5.54468 -6.43274 26.90136 0 0 0
41 -6.07344 -7.29293 26.84064 0 0 0
42 -6.67910 -7.92846 26.42802 0 0 0
43 -7.16181 -8.70345 26.29255 0 0 0
44 -7.50785 -9.43208 26.78876 0 0 0
45 -8.24190 -10.06547 26.49463 0 0 0
46 -8.56913 -10.93721 26.82274 0 0 0
47 -9.23421 -11.65418 26.76773 0 0 0
48 -10.15598 -12.18332 26.76227 0 0 0
49 -10.73047 -12.89487 26.70135 0 0 0
50 -10.43388 -13.80718 26.68246 0 0 0
51 -11.14791 -14.47666 26.86505 0 0 0
52 -12.17611 -14.46617 26.60926 0 0 0
53 -12.93042 -13.93121 26.83525 0 0 0
54 -13.38161 -13.30886 25.99783 0 0 0
55 -14.16693 -13.34648 25.35586 0 0 0
56 -14.56309 -13.91367 24.68825 0 0 0
57 -14.31720 -14.19937 23.75372 0 0 0
58 -14.14923 -15.23061 23.72312 0 0 0
59 -14.41404 -15.88782 24.45326 0 0 0
60 -15.18465 -15.65021 23.93814 0 0 0
61 -16.10812 -15.55904 23.78162 0 0 0
62 -0.42524 -1.88236 26.95501 0 0 0
63 -1.08233 -1.34985 27.55402 0 0 0
64 -1.26420 -0.79505 28.35163 0 0 0
65 -0.88712 0.05689 28.56447 0 0 0
66 -1.50636 0.55945 29.20924 0 0 0
67 -1.63553 0.80646 30.10046 0 0 0
68 -1.29252 1.65835 30.24614 0 0 0
69 -1.23930 2.26249 31.08548 0 0 0
70 -1.76821 2.69158 31.74615 0 0 0
71 -2.07271 3.41821 32.28289 0 0 0
72 -2.91737 4.05258 32.34493 0 0 0
73 -3.34611 3.95036 33.24683 0 0 0
74 -3.17237 4.57838 33.98828 0 0 0
75 -3.76964 5.03819 34.69239 0 0 0
76 -3.68125 5.45755 35.53318 0 0 0
77 -4.33931 6.05092 35.18862 0 0 0
78 -5.23466 6.42605 35.30769 0 0 0
79 -5.89523 6.91842 35.82509 0 0 0
80 -6.14984 7.46559 36.56339 0 0 0
81 -6.76621 8.19237 36.96122 0 0 0
82 -7.31121 8.87109 37.46816 0 0 0
83 -7.46994 8.98196 38.41071 0 0 0
84 -7.11519 9.46494 39.23682 0 0 0
85 -7.36269 9.81596 40.16502 0 0 0
86 -7.74348 10.53372 40.72418 0 0 0
87 -8.69114 10.48328 40.65258 0 0 0
88 -9.50693 9.93235 40.76017 0 0 0
89 -10.30184 9.51631 40.63401 0 0 0
90 -10.97416 10.26896 40.69547 0 0 0
91 -11.70661 9.70236 40.93795 0 0 0
92 1.45605 -2.11430 26.89283 0 0 0
93 2.33731 -2.55606 26.94420 0 0 0
94 3.02330 -3.23117 26.65180 0 0 0
95 3.97847 -3.27677 26.80096 0 0 0
96 4.89520 -3.59835 26.96619 0 0 0
97 5.80633 -3.84860 27.01521 0 0 0
98 6.80638 -3.90895 27.13138 0 0 0
99 7.80881 -3.78077 27.24352 0 0 0
100 8.71472 -4.23833 27.50653 0 0 0
101 9.67467 -4.22827 27.78820 0 0 0
102 10.56755 -4.08065 28.18292 0 0 0
103 11.56069 -4.39959 28.30356 0 0 0
104 12.38343 -4.17712 28.86086 0 0 0
105 13.29114 -4.09995 28.74925 0 0 0
106 14.09250 -4.08307 29.22252 0 0 0
107 15.11677 -4.22939 29.47036 0 0 0
108 15.86640 -4.88382 29.62760 0 0 0
109 16.62920 -5.36053 29.97965 0 0 0
110 17.46434 -5.06363 30.36045 0 0 0
111 18.32541 -5.52949 30.49532 0 0 0
112 19.17908 -6.00016 30.54526 0 0 0
113 20.02622 -6.14600 30.13012 0 0 0
114 20.87405 -5.86219 30.58561 0 0 0
115 21.61745 -6.50600 30.61559 0 0 0
116 22.61394 -6.33252 30.58799 0 0 0
117 23.53514 -6.62827 30.81698 0 0 0
118 24.43534 -6.68506 31.16185 0 0 0
119 25.38054 -6.88273 30.85910 0 0 0
120 26.14271 -7.07220 31.38566 0 0 0
121 27.01631 -7.39500 31.28862 0 0 0
122 26.73703 -7.96067 30.45820 0 0 0
123 26.24378 -8.63787 29.92955 0 0 0
124 26.63169 -9.14501 29.12817 0 0 0
125 26.76248 -9.69929 28.35203 0 0 0
126 26.76807 -10.16666 27.45355 0 0 0
127 27.41279 -10.25804 26.69266 0 0 0
128 27.40695 -10.59214 25.80129 0 0 0
129 27.24981 -10.69248 24.81948 0 0 0
130 27.55836 -10.94967 23.97548 0 0 0
131 27.92856 -11.56812 23.36774 0 0 0
132 28.71225 -11.77749 22.91290 0 0 0
133 29.27791 -11.68311 22.02733 0 0 0
134 29.77082 -12.38065 21.60352 0 0 0
135 30.08702 -12.37330 20.64311 0 0 0
136 29.78172 -11.99922 19.71800 0 0 0
137 30.61131 -12.00198 19.21268 0 0 0
138 30.16780 -11.92694 18.35619 0 0 0
139 31.11301 -11.93515 17.94655 0 0 0
140 31.85053 -11.84434 17.34055 0 0 0
141 32.10554 -12.10508 16.47333 0 0 0
142 32.11824 -13.05095 16.50157 0 0 0
143 32.43510 -13.90728 16.32737 0 0 0
144 32.48411 -13.68116 15.37462 0 0 0
145 32.24967 -13.63850 14.44158 0 0 0
146 32.42473 -13.70839 13.41281 0 0 0
147 32.09864 -13.56593 12.42916 0 0 0
148 33.01945 -13.25578 11.96572 0 0 0
149 33.79353 -12.85924 11.40054 0 0 0
150 33.55656 -13.10684 10.43361 0 0 0
151 33.92510 -13.59077 9.60371 0 0 0
152 27.25137 -8.21648 31.85245 0 0 0
153 27.21039 -8.90422 32.44554 0 0 0
154 28.01710 -8.72919 32.94961 0 0 0
155 27.46411 -9.13438 33.58376 0 0 0
156 27.27259 -9.89999 34.23664 0 0 0
157 27.66951 -10.79979 34.84940 0 0 0
158 27.91566 -11.78911 34.70405 0 0 0
159 28.25467 -12.66453 34.25565 0 0 0
160 28.12803 -13.64251 34.41504 0 0 0
161 28.14217 -14.13165 35.28126 0 0 0
162 28.40829 -14.92255 35.95941 0 0 0
163 28.64028 -15.85481 36.34766 0 0 0
164 28.44460 -16.22122 37.16589 0 0 0
165 27.90003 -16.40465 38.00687 0 0 0
166 27.95339 -17.20704 38.54670 0 0 0
167 27.95955 -18.15398 38.96988 0 0 0
168 28.37210 -18.99964 39.04864 0 0 0
169 28.78573 -19.80476 39.43618 0 0 0
170 29.06481 -20.76104 39.23260 0 0 0
171 29.14582 -20.92488 40.16943 0 0 0
172 29.46981 -21.43738 40.94985 0 0 0
173 29.41758 -21.60935 41.95031 0 0 0
174 29.79606 -22.50122 42.16606 0 0 0
175 28.97655 -22.98526 41.84489 0 0 0
176 28.12580 -23.40166 41.72872 0 0 0
177 27.67463 -23.94635 42.37272 0 0 0
178 27.89522 -24.29049 43.35919 0 0 0
179 28.47775 -24.79167 43.92848 0 0 0
180 28.51532 -25.35938 44.70068 0 0 0
181 28.31544 -26.34595 44.50576 0 0 0
182 27.75100 -6.76351 31.27698 0 0 0
183 28.28895 -5.99251 31.00882 0 0 0
184 29.21554 -5.73884 31.24604 0 0 0
185 29.99776 -5.32345 31.82882 0 0 0
186 30.99191 -5.05499 31.85615 0 0 0
187 31.15679 -4.15532 32.21655 0 0 0
188 31.86770 -3.59635 32.61768 0 0 0
189 32.95554 -3.39872 32.78454 0 0 0
190 33.46183 -2.59627 32.91434 0 0 0
191 34.10836 -2.51422 33.63324 0 0 0
192 34.86743 -1.84988 33.66168 0 0 0
193 35.58742 -1.29758 34.01091 0 0 0
194 36.32501 -0.65030 33.95108 0 0 0
195 36.98817 -0.00634 34.25020 0 0 0
196 37.72602 0.59011 34.41921 0 0 0
197 38.33102 1.25528 34.82978 0 0 0
198 38.82521 1.95085 35.54826 0 0 0
199 39.58362 2.48677 35.77309 0 0 0
200 40.41271 2.99925 35.97492 0 0 0
201 41.25998 3.26860 36.28540 0 0 0
202 41.92767 3.74162 36.73638 0 0 0
203 42.62518 4.35666 37.18855 0 0 0
204 42.60058 5.28223 36.87464 0 0 0
205 43.53721 5.20599 36.88619 0 0 0
206 44.22200 5.42646 37.60732 0 0 0
207 44.66102 6.04490 38.23713 0 0 0
208 45.35496 6.80925 38.25137 0 0 0
209 45.64423 7.70215 38.31522 0 0 0
210 45.89501 7.71401 39.25701 0 0 0
211 46.62054 8.33113 39.51110 0 0 0
212 46.39589 9.24676 39.14524 0 0 0
213 47.20160 9.29880 38.74321 0 0 0
214 47.83221 9.71907 37.95943 0 0 0
215 48.33779 10.09707 37.24600 0 0 0
216 49.00470 10.47026 36.69670 0 0 0
217 49.52211 11.27099 36.43877 0 0 0
218 50.54459 11.72096 36.26564 0 0 0
219 51.10205 12.29845 35.65690 0 0 0
220 51.93336 12.79738 35.89248 0 0 0
221 52.61789 13.25517 35.42493 0 0 0
222 53.22808 13.85035 34.92342 0 0 0
223 53.88590 14.47545 34.53051 0 0 0
224 54.32773 15.13410 33.97776 0 0 0
225 55.10997 15.54258 33.51666 0 0 0
226 54.65863 15.84222 32.77243 0 0 0
227 54.77950 16.69696 32.26864 0 0 0
228 55.40568 17.33037 31.94652 0 0 0
229 55.66112 17.24189 30.98097 0 0 0
230 55.58634 17.83722 30.19979 0 0 0
231 55.83689 18.69595 29.70293 0 0 0
232 56.14511 19.37103 29.08029 0 0 0
233 56.62305 20.06254 28.52720 0 0 0
234 56.61050 20.78244 29.23189 0 0 0
235 56.65169 21.83633 29.34572 0 0 0
236 57.07139 22.84777 29.23631 0 0 0
237 58.00891 23.20797 29.22488 0 0 0
238 58.48182 24.02545 28.77649 0 0 0
239 58.93562 24.11734 29.63590 0 0 0
240 59.04112 23.57150 30.46875 0 0 0
241 59.50541 22.64232 30.77192 0 0 0
242 47.44390 8.25917 40.08348 0 0 0
243 48.18763 7.62133 39.91479 0 0 0
244 48.79905 6.81641 39.76519 0 0 0
245 49.53883 6.18666 40.26321 0 0 0
246 50.20956 5.69244 40.66825 0 0 0
247 50.79675 4.85419 40.79175 0 0 0
248 50.51232 4.01068 41.12004 0 0 0
249 50.82575 3.41262 41.81489 0 0 0
250 51.05909 2.53549 42.18610 0 0 0
251 51.80518 2.05029 41.88857 0 0 0
252 52.81785 1.61577 42.02153 0 0 0
253 53.71764 1.60982 41.57869 0 0 0
254 54.52131 1.00344 41.85348 0 0 0
255 54.88089 0.25428 42.42168 0 0 0
256 55.75027 0.10913 42.73136 0 0 0
257 56.55265 -0.41087 43.02093 0 0 0
258 57.47809 -0.63336 43.40127 0 0 0
259 57.81597 -1.37400 43.87192 0 0 0
260 58.67201 -1.79555 43.95023 0 0 0
261 59.49940 -1.25710 44.01997 0 0 0
262 60.14632 -1.21258 44.76375 0 0 0
263 60.97685 -1.59314 44.75088 0 0 0
264 60.94852 -2.58602 44.31574 0 0 0
265 61.81140 -2.24905 44.74572 0 0 0
266 62.23955 -3.11719 45.04878 0 0 0
267 62.63361 -2.39707 45.52814 0 0 0
268 63.42286 -3.15336 45.50840 0 0 0
269 63.87425 -3.44830 44.61882 0 0 0
270 63.40205 -2.81508 44.05652 0 0 0
271 64.23108 -3.16139 43.63601 0 0 0
272 45.90432 8.50383 40.10237 0 0 0
273 45.68277 9.23272 40.82714 0 0 0
274 44.91925 9.73870 41.01572 0 0 0
275 44.52023 10.33698 41.64616 0 0 0
276 44.19707 10.95104 42.37355 0 0 0
277 43.49204 11.15776 42.93711 0 0 0
278 43.41296 11.35164 43.87270 0 0 0
279 42.81405 10.96404 44.51527 0 0 0
280 43.00187 11.66873 45.20722 0 0 0
281 42.32156 12.15469 45.83080 0 0 0
282 41.65268 12.78918 46.21894 0 0 0
283 40.85181 13.02643 46.90087 0 0 0
284 41.04810 13.90124 47.27185 0 0 0
285 40.63728 14.30290 48.06150 0 0 0
286 40.87389 14.95069 48.83327 0 0 0
287 39.96849 14.60412 48.91860 0 0 0
288 39.32882 15.32503 48.97185 0 0 0
289 38.62665 15.75579 49.63065 0 0 0
290 37.85181 15.54381 50.17527 0 0 0
291 36.98415 15.86629 50.51326 0 0 0
292 36.38930 15.89790 51.22645 0 0 0
293 36.00498 16.31375 52.03628 0 0 0
294 35.78679 16.93980 52.79740 0 0 0
295 35.13341 17.27878 53.49665 0 0 0
296 35.22584 17.02865 54.47267 0 0 0
297 34.93858 16.56723 55.36575 0 0 0
298 34.40171 17.33256 55.41312 0 0 0
299 33.72927 17.87717 55.81220 0 0 0
300 33.26848 18.53601 55.22647 0 0 0
301 32.77043 18.11607 54.43229 0 0 0
ITEM: TIMESTEP
2000
ITEM: NUMBER OF ATOMS
301
ITEM: BOX BOUNDS pp pp pp
-1.0000000000000000e+03 1.0000000000000000e+03
-1.0000000000000000e+03 1.0000000000000000e+03
-1.0000000000000000e+03 1.0000000000000000e+03
ITEM: ATOMS id x y z ix iy iz
1 -1.44027 2.17469 6.27399 0 0 0
2 -0.88038 2.42262 7.07213 0 0 0
3 -0.13663 2.15821 7.71182 0 0 0
4 0.74959 2.14056 7.84877 0 0 0
5 1.28683 1.43177 8.12365 0 0 0
6 1.52548 1.56700 9.16325 0 0 0
7 0.88610 1.70959 9.96783 0 0 0
8 1.13659 0.98630 10.48142 0 0 0
9 1.13382 0.88997 11.48061 0 0 0
10 1.68533 0.24095 11.91497 0 0 0
11 0.89984 0.32192 12.49021 0 0 0
12 0.27983 -0.05698 13.12245 0 0 0
13 0.62457 -0.59023 13.90613 0 0 0
14 0.48405 -1.11011 14.72426 0 0 0
15 0.69149 -0.68916 15.61249 0 0 0
16 0.35545 -1.01523 16.50454 0 0 0
17 1.02021 -0.74553 17.09296 0 0 0
18 1.62983 -1.15321 17.73916 0 0 0
19 2.06473 -0.74309 18.53079 0 0 0
20 1.81683 -1.47129 19.09950 0 0 0
21 0.91068 -1.65493 19.48763 0 0 0
22 0.70899 -1.98266 20.44656 0 0 0
23 1.14099 -2.53694 21.16721 0 0 0
24 1.70470 -3.17886 21.54503 0 0 0
25 2.00463 -3.09173 22.49201 0 0 0
26 1.61672 -3.41362 23.31901 0 0 0
27 1.56047 -3.77294 24.26234 0 0 0
28 1.44224 -3.37602 25.12675 0 0 0
29 2.09347 -3.67951 25.90688 0 0 0
30 1.92881 -4.00036 26.83140 0 0 0
31 1.59533 -3.66973 27.70246 0 0 0
32 0.81278 -3.75314 27.08045 0 0 0
33 -0.04679 -3.85780 26.63960 0 0 0
34 -1.04917 -4.05261 26.71428 0 0 0
35 -1.43133 -4.77422 27.20785 0 0 0
36 -1.51409 -5.66563 26.95657 0 0 0
37 -2.06388 -6.44778 27.28339 0 0 0
38 -3.01220 -6.44592 27.07965 0 0 0
39 -3.86012 -5.86128 26.91779 0 0 0
40 -4.86098 -5.81980 26.97835 0 0 0
41 -5.56242 -5.82294 27.73926 0 0 0
42 -6.26484 -6.60176 27.87319 0 0 0
43 -6.96015 -6.86453 27.19668 0 0 0
44 -7.75534 -7.21033 26.75195 0 0 0
45 -8.13268 -8.02524 26.30500 0 0 0
46 -8.53029 -8.82082 26.68791 0 0 0
47 -9.14489 -9.33265 26.17541 0 0 0
48 -10.04204 -9.64301 26.54933 0 0 0
49 -10.40045 -8.74502 26.35924 0 0 0
50 -11.37073 -8.79513 26.73814 0 0 0
51 -11.59428 -9.47590 27.42166 0 0 0
52 -12.05084 -10.12718 26.87151 0 0 0
53 -12.28475 -11.03591 26.91640 0 0 0
54 -12.92427 -11.73963 26.91419 0 0 0
55 -13.53240 -12.48552 27.01281 0 0 0
56 -13.72054 -13.51338 27.05669 0 0 0
57 -14.48595 -14.00156 26.69570 0 0 0
58 -15.19283 -14.17621 26.01771 0 0 0
59 -15.99625 -13.54074 25.76001 0 0 0
60 -16.34137 -13.61143 24.78438 0 0 0
61 -15.37851 -13.85741 24.64131 0 0 0
62 1.24868 -3.01733 28.38597 0 0 0
63 0.83101 -2.14604 28.38307 0 0 0
64 0.75114 -1.15282 28.76793 0 0 0
65 -0.02043 -0.75468 29.08840 0 0 0
66 -0.20813 -0.09859 29.77979 0 0 0
67 -0.54559 0.42239 30.52561 0 0 0
68 -1.10630 1.00577 31.09108 0 0 0
69 -2.01936 1.36809 31.20187 0 0 0
70 -2.79187 1.66735 31.76270 0 0 0
71 -3.23833 1.94620 32.52097 0 0 0
72 -3.59404 2.68247 32.95110 0 0 0
73 -4.18773 2.99662 33.60516 0 0 0
74 -3.24375 3.50515 33.59030 0 0 0
75 -3.34422 4.43122 34.17971 0 0 0
76 -4.15424 4.59835 34.66667 0 0 0
77 -4.03613 5.59475 34.64193 0 0 0
78 -4.26087 6.16489 35.38686 0 0 0
79 -5.08221 5.78759 35.49807 0 0 0
80 -4.92568 5.00870 36.04361 0 0 0
81 -5.20914 5.24562 36.93671 0 0 0
82 -4.51370 5.85472 37.07565 0 0 0
83 -5.26668 6.28768 36.71353 0 0 0
84 -6.06627 6.61785 37.12243 0 0 0
85 -5.72570 7.41233 36.50967 0 0 0
86 -6.72490 7.51939 36.45373 0 0 0
87 -7.43152 6.97972 36.60948 0 0 0
88 -8.01395 6.14045 36.59906 0 0 0
89 -8.85674 6.59070 36.48182 0 0 0
90 -9.07878 6.26183 37.38447 0 0 0
91 -8.54750 6.29272 38.23065 0 0 0
92 2.55002 -3.63138 27.76497 0 0 0
93 3.59365 -3.52402 27.65042 0 0 0
94 4.34742 -3.53762 28.24648 0 0 0
95 5.30890 -3.64527 28.53457 0 0 0
96 6.33189 -3.62094 28.72099 0 0 0
97 7.17847 -3.34453 29.02937 0 0 0
98 8.16134 -3.40310 29.16437 0 0 0
99 8.70037 -4.15923 29.56245 0 0 0
100 9.36660 -4.83169 29.14994 0 0 0
101 10.35313 -4.75327 29.30830 0 0 0
102 11.28969 -4.58445 29.37970 0 0 0
103 12.14849 -4.55494 29.75209 0 0 0
104 13.14179 -4.67422 29.62517 0 0 0
105 14.11631 -4.48363 29.51923 0 0 0
106 15.00844 -4.93998 29.76690 0 0 0
107 15.94637 -5.12123 30.11306 0 0 0
108 16.70391 -5.65931 30.30915 0 0 0
109 17.71611 -5.89526 30.17785 0 0 0
110 18.67448 -6.15849 30.32590 0 0 0
111 19.62717 -5.74040 30.47609 0 0 0
112 20.46789 -5.70019 29.91238 0 0 0
113 21.39991 -5.51824 30.23980 0 0 0
114 22.33314 -5.19570 30.45348 0 0 0
115 23.25253 -5.45887 30.76968 0 0 0
116 23.96348 -4.81419 31.15685 0 0 0
117 24.87032 -5.23348 31.53658 0 0 0
118 25.55592 -5.01961 30.87510 0 0 0
119 26.46446 -5.13788 30.94413 0 0 0
120 27.30634 -5.67458 31.11850 0 0 0
121 28.29017 -5.78354 30.98154 0 0 0
122 27.93219 -6.38315 30.32327 0 0 0
123 27.45426 -6.54652 29.41513 0 0 0
124 27.68151 -7.22664 28.76617 0 0 0
125 28.09015 -6.74050 28.03161 0 0 0
126 28.12251 -6.97148 27.05798 0 0 0
127 28.44031 -6.87298 26.09958 0 0 0
128 28.52070 -7.41329 25.29237 0 0 0
129 28.66930 -8.46182 25.24981 0 0 0
130 27.69979 -8.40857 25.37271 0 0 0
131 26.87925 -8.73543 25.01616 0 0 0
132 26.88277 -9.22788 24.14006 0 0 0
133 27.35936 -9.74541 23.49820 0 0 0
134 28.03047 -10.21795 22.95504 0 0 0
135 28.02504 -11.21067 22.86208 0 0 0
136 28.81839 -11.60561 22.30127 0 0 0
137 29.15430 -11.85925 21.43687 0 0 0
138 28.61595 -12.17296 20.68696 0 0 0
139 29.15172 -12.26494 19.85554 0 0 0
140 29.87574 -12.70038 19.30751 0 0 0
141 29.93250 -13.43824 18.66136 0 0 0
142 29.90875 -13.37154 17.63815 0 0 0
143 30.41613 -14.13062 17.29053 0 0 0
144 30.77462 -14.17413 16.40185 0 0 0
145 31.58104 -14.21603 15.86761 0 0 0
146 31.93558 -13.64185 15.17480 0 0 0
147 32.84754 -13.51069 14.94221 0 0 0
148 33.07452 -13.58411 13.88612 0 0 0
149 33.10060 -13.08916 13.07798 0 0 0
150 32.36148 -13.64082 12.81203 0 0 0
151 31.91446 -14.52361 12.78057 0 0 0
152 28.10890 -6.65424 31.49888 0 0 0
153 27.85970 -7.61536 31.57078 0 0 0
154 27.26588 -8.36903 31.52363 0 0 0
155 26.99728 -9.19801 32.04901 0 0 0
156 27.25927 -10.00240 32.62098 0 0 0
157 26.66160 -10.56082 33.09229 0 0 0
158 26.61438 -11.25888 33.80605 0 0 0
159 26.37492 -11.81935 34.61693 0 0 0
160 26.74266 -12.68383 34.95198 0 0 0
161 27.12890 -13.26008 35.61817 0 0 0
162 27.98766 -13.78507 35.75957 0 0 0
163 28.18379 -14.69579 35.41803 0 0 0
164 28.06416 -15.36033 36.14289 0 0 0
165 28.42384 -15.90411 36.91055 0 0 0
166 29.20464 -16.05746 37.65721 0 0 0
167 29.66355 -16.51224 38.39303 0 0 0
168 29.81084 -17.30850 38.91307 0 0 0
169 29.83369 -18.06554 39.55838 0 0 0
170 30.03981 -18.88641 40.05142 0 0 0
171 29.94647 -19.83027 40.38710 0 0 0
172 30.16156 -20.39535 41.16822 0 0 0
173 30.56105 -20.97513 41.85042 0 0 0
174 29.67665 -21.33927 41.97630 0 0 0
175 28.76176 -21.50321 42.08437 0 0 0
176 27.77013 -21.54632 41.83292 0 0 0
177 27.30132 -22.35267 41.55208 0 0 0
178 27.04730 -23.08221 40.99536 0 0 0
179 26.90764 -23.90320 41.51673 0 0 0
180 26.47683 -24.12377 42.38026 0 0 0
181 26.77557 -23.27915 42.88219 0 0 0
182 29.22169 -5.92577 30.77543 0 0 0
183 30.11374 -5.88989 31.32730 0 0 0
184 31.04491 -5.66970 31.22542 0 0 0
185 31.77252 -5.02959 31.34972 0 0 0
186 32.69942 -4.83945 31.71982 0 0 0
187 33.41011 -4.41678 32.16212 0 0 0
188 33.73466 -3.73741 32.73105 0 0 0
189 34.13233 -3.11268 33.42183 0 0 0
190 35.07973 -2.90068 33.41282 0 0 0
191 35.86813 -2.47424 33.05742 0 0 0
192 36.27893 -1.75597 33.61274 0 0 0
193 36.99191 -1.16801 33.65941 0 0 0
194 37.96483 -0.96536 33.64266 0 0 0
195 38.82466 -0.85535 34.10998 0 0 0
196 39.20369 0.03110 34.22059 0 0 0
197 39.84341 0.60866 34.67554 0 0 0
198 40.02751 1.45957 35.24988 0 0 0
199 40.27314 2.14373 36.02201 0 0 0
200 41.21476 1.92043 36.26600 0 0 0