ITEM: TIMESTEP
0
ITEM: NUMBER OF ATOMS
401
ITEM: BOX BOUNDS pp pp pp
-1.0000000000000000e+03 1.0000000000000000e+03
-1.0000000000000000e+03 1.0000000000000000e+03
-1.0000000000000000e+03 1.0000000000000000e+03
ITEM: ATOMS id x y z ix iy iz
1 0.00000 0.00000 0.00000 0 0 0
2 0.00000 0.00000 1.00000 0 0 0
3 0.00000 -0.50000 1.86603 0 0 0
4 0.00000 0.00000 2.73205 0 0 0
5 0.00000 -0.50000 3.59808 0 0 0
6 0.00000 0.00000 4.46410 0 0 0
7 0.00000 -0.50000 5.33013 0 0 0
8 0.00000 0.00000 6.19615 0 0 0
9 0.00000 -0.50000 7.06218 0 0 0
10 0.00000 0.00000 7.92820 0 0 0
11 0.00000 -0.50000 8.79423 0 0 0
12 0.00000 0.00000 9.66025 0 0 0
13 0.00000 -0.50000 10.52628 0 0 0
14 0.00000 0.00000 11.39230 0 0 0
15 0.00000 -0.50000 12.25833 0 0 0
16 0.00000 0.00000 13.12436 0 0 0
17 0.00000 -0.50000 13.99038 0 0 0
18 0.00000 0.00000 14.85641 0 0 0
19 0.00000 -0.50000 15.72243 0 0 0
20 0.00000 0.00000 16.58846 0 0 0
21 0.00000 -0.50000 17.45448 0 0 0
22 0.00000 0.00000 18.32051 0 0 0
23 0.00000 -0.50000 19.18653 0 0 0
24 0.00000 0.00000 20.05256 0 0 0
25 0.00000 -0.50000 20.91858 0 0 0
26 0.00000 0.00000 21.78461 0 0 0
27 0.00000 -0.50000 22.65064 0 0 0
28 0.00000 0.00000 23.51666 0 0 0
29 0.00000 -0.50000 24.38269 0 0 0
30 0.00000 0.00000 25.24871 0 0 0
31 0.00000 -0.50000 26.11474 0 0 0
32 0.00000 0.00000 26.98076 0 0 0
33 0.00000 -0.50000 27.84679 0 0 0
34 0.00000 0.00000 28.71281 0 0 0
35 0.00000 -0.50000 29.57884 0 0 0
36 0.00000 0.00000 30.44486 0 0 0
37 0.00000 -0.50000 31.31089 0 0 0
38 0.00000 0.00000 32.17691 0 0 0
39 0.00000 -0.50000 33.04294 0 0 0
40 0.00000 0.00000 33.90897 0 0 0
41 0.00000 -0.50000 34.77499 0 0 0
42 -0.12681 0.14203 35.53111 0 0 0
43 -0.25362 0.31998 36.50695 0 0 0
44 -0.38043 1.25405 36.84075 0 0 0
45 -0.50724 1.43200 37.81659 0 0 0
46 -0.63405 2.36608 38.15039 0 0 0
47 -0.76087 2.54403 39.12623 0 0 0
48 -0.88768 3.47810 39.46004 0 0 0
49 -1.01449 3.65605 40.43587 0 0 0
50 -1.14130 4.59012 40.76968 0 0 0
51 -1.26811 4.76807 41.74551 0 0 0
52 -1.39492 5.70215 42.07932 0 0 0
53 -1.52173 5.88010 43.05515 0 0 0
54 -1.64854 6.81417 43.38896 0 0 0
55 -1.77535 6.99212 44.36479 0 0 0
56 -1.90216 7.92620 44.69860 0 0 0
57 -2.02897 8.10415 45.67443 0 0 0
58 -2.15579 9.03822 46.00824 0 0 0
59 -2.28260 9.21617 46.98407 0 0 0
60 -2.40941 10.15024 47.31788 0 0 0
61 -2.53622 10.32819 48.29372 0 0 0
62 -2.66303 11.26227 48.62752 0 0 0
63 -2.78984 11.44022 49.60336 0 0 0
64 -2.91665 12.37429 49.93716 0 0 0
65 -3.04346 12.55224 50.91300 0 0 0
66 -3.17027 13.48631 51.24680 0 0 0
67 -3.29708 13.66427 52.22264 0 0 0
68 -3.42390 14.59834 52.55645 0 0 0
69 -3.55071 14.77629 53.53228 0 0 0
70 -3.67752 15.71036 53.86609 0 0 0
71 -3.80433 15.88831 54.84192 0 0 0
72 -3.93114 16.82239 55.17573 0 0 0
73 -4.05795 17.00034 56.15156 0 0 0
74 -4.18476 17.93441 56.48537 0 0 0
75 -4.31157 18.11236 57.46120 0 0 0
76 -4.43838 19.04643 57.79501 0 0 0
77 -4.56519 19.22439 58.77084 0 0 0
78 -4.69200 20.15846 59.10465 0 0 0
79 -4.81882 20.33641 60.08049 0 0 0
80 -4.94563 21.27048 60.41429 0 0 0
81 -5.07244 21.44843 61.39013 0 0 0
82 0.87234 -0.97626 34.88547 0 0 0
83 1.74467 -1.44395 34.74301 0 0 0
84 2.61701 -1.80117 35.07682 0 0 0
85 3.48934 -2.26886 34.93437 0 0 0
86 4.36168 -2.62608 35.26817 0 0 0
87 5.23402 -3.09377 35.12572 0 0 0
88 6.10635 -3.45098 35.45953 0 0 0
89 6.97869 -3.91868 35.31707 0 0 0
90 7.85103 -4.27589 35.65088 0 0 0
91 8.72336 -4.74358 35.50843 0 0 0
92 9.59570 -5.10080 35.84223 0 0 0
93 10.46803 -5.56849 35.69978 0 0 0
94 11.34037 -5.92571 36.03359 0 0 0
95 12.21271 -6.39340 35.89113 0 0 0
96 13.08504 -6.75061 36.22494 0 0 0
97 13.95738 -7.21831 36.08249 0 0 0
98 14.82972 -7.57552 36.41629 0 0 0
99 15.70205 -8.04321 36.27384 0 0 0
100 16.57439 -8.40043 36.60765 0 0 0
101 17.44672 -8.86812 36.46519 0 0 0
102 18.31906 -9.22534 36.79900 0 0 0
103 19.19140 -9.69303 36.65655 0 0 0
104 20.06373 -10.05024 36.99035 0 0 0
105 20.93607 -10.51794 36.84790 0 0 0
106 21.80841 -10.87515 37.18171 0 0 0
107 22.68074 -11.34284 37.03925 0 0 0
108 23.55308 -11.70006 37.37306 0 0 0
109 24.42541 -12.16775 37.23061 0 0 0
110 25.29775 -12.52497 37.56441 0 0 0
111 26.17009 -12.99266 37.42196 0 0 0
112 27.04242 -13.34987 37.75577 0 0 0
113 27.91476 -13.81757 37.61331 0 0 0
114 28.78710 -14.17478 37.94712 0 0 0
115 29.65943 -14.64247 37.80466 0 0 0
116 30.53177 -14.99969 38.13847 0 0 0
117 31.40410 -15.46738 37.99602 0 0 0
118 32.27644 -15.82460 38.32982 0 0 0
119 33.14878 -16.29229 38.18737 0 0 0
120 34.02111 -16.64950 38.52118 0 0 0
121 34.89345 -17.11720 38.37872 0 0 0
122 -0.74553 -1.16648 34.77565 0 0 0
123 -1.49105 -1.74399 34.44298 0 0 0
124 -2.23658 -2.32085 34.77678 0 0 0
125 -2.98210 -2.89836 34.44411 0 0 0
126 -3.72763 -3.47522 34.77792 0 0 0
127 -4.47315 -4.05274 34.44525 0 0 0
128 -5.21868 -4.62959 34.77906 0 0 0
129 -5.96420 -5.20711 34.44639 0 0 0
130 -6.70973 -5.78397 34.78019 0 0 0
131 -7.45525 -6.36148 34.44752 0 0 0
132 -8.20078 -6.93834 34.78133 0 0 0
133 -8.94630 -7.51585 34.44866 0 0 0
134 -9.69183 -8.09271 34.78247 0 0 0
135 -10.43735 -8.67022 34.44980 0 0 0
136 -11.18288 -9.24708 34.78360 0 0 0
137 -11.92840 -9.82460 34.45093 0 0 0
138 -12.67393 -10.40145 34.78474 0 0 0
139 -13.41946 -10.97897 34.45207 0 0 0
140 -14.16498 -11.55583 34.78588 0 0 0
141 -14.91051 -12.13334 34.45321 0 0 0
142 -15.65603 -12.71020 34.78701 0 0 0
143 -16.40156 -13.28771 34.45434 0 0 0
144 -17.14708 -13.86457 34.78815 0 0 0
145 -17.89261 -14.44208 34.45548 0 0 0
146 -18.63813 -15.01894 34.78929 0 0 0
147 -19.38366 -15.59646 34.45662 0 0 0
148 -20.12918 -16.17331 34.79042 0 0 0
149 -20.87471 -16.75083 34.45775 0 0 0
150 -21.62023 -17.32769 34.79156 0 0 0
151 -22.36576 -17.90520 34.45889 0 0 0
152 -23.11128 -18.48206 34.79270 0 0 0
153 -23.85681 -19.05957 34.46003 0 0 0
154 -24.60233 -19.63643 34.79383 0 0 0
155 -25.34786 -20.21394 34.46116 0 0 0
156 -26.09339 -20.79080 34.79497 0 0 0
157 -26.83891 -21.36832 34.46230 0 0 0
158 -27.58444 -21.94517 34.79611 0 0 0
159 -28.32996 -22.52269 34.46344 0 0 0
160 -29.07549 -23.09955 34.79724 0 0 0
161 -29.82101 -23.67706 34.46457 0 0 0
162 -29.53750 -24.63569 34.48998 0 0 0
163 -29.25399 -25.47860 34.03267 0 0 0
164 -28.97048 -26.29609 34.53399 0 0 0
165 -28.68697 -27.13900 34.07668 0 0 0
166 -28.40346 -27.95649 34.57800 0 0 0
167 -28.11995 -28.79940 34.12068 0 0 0
168 -27.83644 -29.61689 34.62200 0 0 0
169 -27.55292 -30.45980 34.16469 0 0 0
170 -27.26941 -31.27729 34.66601 0 0 0
171 -26.98590 -32.12020 34.20870 0 0 0
172 -26.70239 -32.93769 34.71002 0 0 0
173 -26.41888 -33.78060 34.25271 0 0 0
174 -26.13537 -34.59809 34.75403 0 0 0
175 -25.85186 -35.44100 34.29671 0 0 0
176 -25.56835 -36.25849 34.79803 0 0 0
177 -25.28484 -37.10140 34.34072 0 0 0
178 -25.00133 -37.91889 34.84204 0 0 0
179 -24.71782 -38.76180 34.38473 0 0 0
180 -24.43431 -39.57929 34.88605 0 0 0
181 -24.15079 -40.42220 34.42874 0 0 0
182 -23.86728 -41.23969 34.93006 0 0 0
183 -23.58377 -42.08260 34.47274 0 0 0
184 -23.30026 -42.90009 34.97406 0 0 0
185 -23.01675 -43.74300 34.51675 0 0 0
186 -22.73324 -44.56049 35.01807 0 0 0
187 -22.44973 -45.40340 34.56076 0 0 0
188 -22.16622 -46.22089 35.06208 0 0 0
189 -21.88271 -47.06380 34.60477 0 0 0
190 -21.59920 -47.88129 35.10609 0 0 0
191 -21.31569 -48.72420 34.64877 0 0 0
192 -21.03217 -49.54169 35.15009 0 0 0
193 -20.74866 -50.38460 34.69278 0 0 0
194 -20.46515 -51.20209 35.19410 0 0 0
195 -20.18164 -52.04500 34.73679 0 0 0
196 -19.89813 -52.86249 35.23811 0 0 0
197 -19.61462 -53.70540 34.78080 0 0 0
198 -19.33111 -54.52289 35.28212 0 0 0
199 -19.04760 -55.36580 34.82480 0 0 0
200 -18.76409 -56.18329 35.32612 0 0 0
201 -18.48058 -57.02620 34.86881 0 0 0
202 -30.04717 -23.42164 33.52457 0 0 0
203 -30.27333 -22.73043 32.83821 0 0 0
204 -30.49948 -22.97923 31.89643 0 0 0
205 -30.72564 -22.28802 31.21007 0 0 0
206 -30.95180 -22.53682 30.26829 0 0 0
207 -31.17796 -21.84561 29.58194 0 0 0
208 -31.40411 -22.09441 28.64015 0 0 0
209 -31.63027 -21.40321 27.95380 0 0 0
210 -31.85643 -21.65200 27.01202 0 0 0
211 -32.08259 -20.96080 26.32566 0 0 0
212 -32.30874 -21.20960 25.38388 0 0 0
213 -32.53490 -20.51839 24.69752 0 0 0
214 -32.76106 -20.76719 23.75574 0 0 0
215 -32.98722 -20.07598 23.06938 0 0 0
216 -33.21337 -20.32478 22.12760 0 0 0
217 -33.43953 -19.63357 21.44124 0 0 0
218 -33.66569 -19.88237 20.49946 0 0 0
219 -33.89184 -19.19117 19.81311 0 0 0
220 -34.11800 -19.43997 18.87132 0 0 0
221 -34.34416 -18.74876 18.18497 0 0 0
222 -34.57032 -18.99756 17.24319 0 0 0
223 -34.79647 -18.30635 16.55683 0 0 0
224 -35.02263 -18.55515 15.61505 0 0 0
225 -35.24879 -17.86394 14.92869 0 0 0
226 -35.47495 -18.11274 13.98691 0 0 0
227 -35.70110 -17.42154 13.30055 0 0 0
228 -35.92726 -17.67033 12.35877 0 0 0
229 -36.15342 -16.97913 11.67242 0 0 0
230 -36.37958 -17.22793 10.73063 0 0 0
231 -36.60573 -16.53672 10.04428 0 0 0
232 -36.83189 -16.78552 9.10250 0 0 0
233 -37.05805 -16.09431 8.41614 0 0 0
234 -37.28421 -16.34311 7.47436 0 0 0
235 -37.51036 -15.65190 6.78800 0 0 0
236 -37.73652 -15.90070 5.84622 0 0 0
237 -37.96268 -15.20950 5.15986 0 0 0
238 -38.18883 -15.45830 4.21808 0 0 0
239 -38.41499 -14.76709 3.53172 0 0 0
240 -38.64115 -15.01589 2.58994 0 0 0
241 -38.86731 -14.32468 1.90359 0 0 0
242 -30.62495 -23.55219 35.04603 0 0 0
243 -31.42889 -23.73477 35.61202 0 0 0
244 -32.23283 -23.33590 36.05314 0 0 0
245 -33.03676 -23.51848 36.61913 0 0 0
246 -33.84070 -23.11961 37.06025 0 0 0
247 -34.64464 -23.30220 37.62624 0 0 0
248 -35.44858 -22.90332 38.06736 0 0 0
249 -36.25251 -23.08591 38.63335 0 0 0
250 -37.05645 -22.68704 39.07447 0 0 0
251 -37.86039 -22.86962 39.64046 0 0 0
252 -38.66433 -22.47075 40.08158 0 0 0
253 -39.46827 -22.65333 40.64757 0 0 0
254 -40.27220 -22.25446 41.08869 0 0 0
255 -41.07614 -22.43705 41.65468 0 0 0
256 -41.88008 -22.03818 42.09580 0 0 0
257 -42.68402 -22.22076 42.66180 0 0 0
258 -43.48796 -21.82189 43.10291 0 0 0
259 -44.29189 -22.00447 43.66891 0 0 0
260 -45.09583 -21.60560 44.11002 0 0 0
261 -45.89977 -21.78818 44.67602 0 0 0
262 -46.70371 -21.38931 45.11713 0 0 0
263 -47.50764 -21.57190 45.68313 0 0 0
264 -48.31158 -21.17303 46.12425 0 0 0
265 -49.11552 -21.35561 46.69024 0 0 0
266 -49.91946 -20.95674 47.13136 0 0 0
267 -50.72340 -21.13932 47.69735 0 0 0
268 -51.52733 -20.74045 48.13847 0 0 0
269 -52.33127 -20.92304 48.70446 0 0 0
270 -53.13521 -20.52416 49.14558 0 0 0
271 -53.93915 -20.70675 49.71157 0 0 0
272 -54.74309 -20.30788 50.15269 0 0 0
273 -55.54702 -20.49046 50.71868 0 0 0
274 -56.35096 -20.09159 51.15980 0 0 0
275 -57.15490 -20.27417 51.72579 0 0 0
276 -57.95884 -19.87530 52.16691 0 0 0
277 -58.76277 -20.05789 52.73290 0 0 0
278 -59.56671 -19.65901 53.17402 0 0 0
279 -60.37065 -19.84160 53.74001 0 0 0
280 -61.17459 -19.44273 54.18113 0 0 0
281 -61.97853 -19.62531 54.74712 0 0 0
282 -62.37111 -20.50951 54.49402 0 0 0
283 -62.76370 -21.14871 53.83273 0 0 0
284 -63.15629 -22.04100 54.05564 0 0 0
285 -63.54888 -22.68019 53.39435 0 0 0
286 -63.94147 -23.57248 53.61726 0 0 0
287 -64.33406 -24.21168 52.95597 0 0 0
288 -64.72665 -25.10397 53.17888 0 0 0
289 -65.11924 -25.74316 52.51759 0 0 0
290 -65.51183 -26.63545 52.74050 0 0 0
291 -65.90442 -27.27465 52.07921 0 0 0
292 -66.29701 -28.16694 52.30213 0 0 0
293 -66.68959 -28.80613 51.64083 0 0 0
294 -67.08218 -29.69842 51.86375 0 0 0
295 -67.47477 -30.33761 51.20245 0 0 0
296 -67.86736 -31.22991 51.42537 0 0 0
297 -68.25995 -31.86910 50.76407 0 0 0
298 -68.65254 -32.76139 50.98699 0 0 0
299 -69.04513 -33.40058 50.32570 0 0 0
300 -69.43772 -34.29287 50.54861 0 0 0
301 -69.83031 -34.93207 49.88732 0 0 0
302 -70.22290 -35.82436 50.11023 0 0 0
303 -70.61549 -36.46355 49.44894 0 0 0
304 -71.00807 -37.35584 49.67185 0 0 0
305 -71.40066 -37.99504 49.01056 0 0 0
306 -71.79325 -38.88733 49.23347 0 0 0
307 -72.18584 -39.52652 48.57218 0 0 0
308 -72.57843 -40.41881 48.79509 0 0 0
309 -72.97102 -41.05801 48.13380 0 0 0
310 -73.36361 -41.95030 48.35671 0 0 0
311 -73.75620 -42.58949 47.69542 0 0 0
312 -74.14879 -43.48178 47.91833 0 0 0
313 -74.54138 -44.12097 47.25704 0 0 0
314 -74.93397 -45.01327 47.47995 0 0 0
315 -75.32655 -45.65246 46.81866 0 0 0
316 -75.71914 -46.54475 47.04157 0 0 0
317 -76.11173 -47.18394 46.38028 0 0 0
318 -76.50432 -48.07624 46.60319 0 0 0
319 -76.89691 -48.71543 45.94190 0 0 0
320 -77.28950 -49.60772 46.16481 0 0 0
321 -77.68209 -50.24691 45.50352 0 0 0
322 -62.65820 -18.90598 54.60354 0 0 0
323 -63.33787 -18.21124 54.83885 0 0 0
324 -64.01754 -17.66007 54.35484 0 0 0
325 -64.69721 -16.96532 54.59016 0 0 0
326 -65.37688 -16.41416 54.10614 0 0 0
327 -66.05655 -15.71941 54.34146 0 0 0
328 -66.73622 -15.16825 53.85745 0 0 0
329 -67.41589 -14.47350 54.09276 0 0 0
330 -68.09556 -13.92234 53.60875 0 0 0
331 -68.77523 -13.22759 53.84407 0 0 0
332 -69.45490 -12.67642 53.36006 0 0 0
333 -70.13457 -11.98168 53.59537 0 0 0
334 -70.81424 -11.43051 53.11136 0 0 0
335 -71.49391 -10.73576 53.34668 0 0 0
336 -72.17358 -10.18460 52.86266 0 0 0
337 -72.85325 -9.48985 53.09798 0 0 0
338 -73.53292 -8.93869 52.61397 0 0 0
339 -74.21259 -8.24394 52.84928 0 0 0
340 -74.89226 -7.69278 52.36527 0 0 0
341 -75.57193 -6.99803 52.60059 0 0 0
342 -76.25160 -6.44686 52.11658 0 0 0
343 -76.93127 -5.75212 52.35189 0 0 0
344 -77.61094 -5.20095 51.86788 0 0 0
345 -78.29061 -4.50620 52.10320 0 0 0
346 -78.97028 -3.95504 51.61918 0 0 0
347 -79.64995 -3.26029 51.85450 0 0 0
348 -80.32962 -2.70913 51.37049 0 0 0
349 -81.00929 -2.01438 51.60580 0 0 0
350 -81.68896 -1.46322 51.12179 0 0 0
351 -82.36863 -0.76847 51.35711 0 0 0
352 -83.04830 -0.21731 50.87310 0 0 0
353 -83.72797 0.47744 51.10841 0 0 0
354 -84.40764 1.02861 50.62440 0 0 0
355 -85.08731 1.72335 50.85972 0 0 0
356 -85.76698 2.27452 50.37570 0 0 0
357 -86.44665 2.96927 50.61102 0 0 0
358 -87.12632 3.52043 50.12701 0 0 0
359 -87.80599 4.21518 50.36232 0 0 0
360 -88.48566 4.76634 49.87831 0 0 0
361 -89.16533 5.46109 50.11363 0 0 0
362 -61.71135 -19.64328 55.71060 0 0 0
363 -61.44417 -20.14058 56.53601 0 0 0
364 -61.17699 -19.67440 57.37940 0 0 0
365 -60.90981 -20.17170 58.20481 0 0 0
366 -60.64263 -19.70552 59.04819 0 0 0
367 -60.37545 -20.20282 59.87360 0 0 0
368 -60.10827 -19.73664 60.71699 0 0 0
369 -59.84109 -20.23394 61.54240 0 0 0
370 -59.57391 -19.76777 62.38578 0 0 0
371 -59.30673 -20.26507 63.21120 0 0 0
372 -59.03955 -19.79889 64.05458 0 0 0
373 -58.77238 -20.29619 64.87999 0 0 0
374 -58.50520 -19.83001 65.72337 0 0 0
375 -58.23802 -20.32731 66.54879 0 0 0
376 -57.97084 -19.86113 67.39217 0 0 0
377 -57.70366 -20.35843 68.21758 0 0 0
378 -57.43648 -19.89225 69.06096 0 0 0
379 -57.16930 -20.38955 69.88638 0 0 0
380 -56.90212 -19.92337 70.72976 0 0 0
381 -56.63494 -20.42067 71.55517 0 0 0
382 -56.36776 -19.95449 72.39855 0 0 0
383 -56.10058 -20.45180 73.22397 0 0 0
384 -55.83340 -19.98562 74.06735 0 0 0
385 -55.56623 -20.48292 74.89276 0 0 0
386 -55.29905 -20.01674 75.73614 0 0 0
387 -55.03187 -20.51404 76.56156 0 0 0
388 -54.76469 -20.04786 77.40494 0 0 0
389 -54.49751 -20.54516 78.23035 0 0 0
390 -54.23033 -20.07898 79.07373 0 0 0
391 -53.96315 -20.57628 79.89915 0 0 0
392 -53.69597 -20.11010 80.74253 0 0 0
393 -53.42879 -20.60740 81.56794 0 0 0
394 -53.16161 -20.14122 82.41132 0 0 0
395 -52.89443 -20.63852 83.23674 0 0 0
396 -52.62725 -20.17235 84.08012 0 0 0
397 -52.36008 -20.66965 84.90553 0 0 0
398 -52.09290 -20.20347 85.74891 0 0 0
399 -51.82572 -20.70077 86.57433 0 0 0
400 -51.55854 -20.23459 87.41771 0 0 0
401 -51.29136 -20.73189 88.24312 0 0 0
ITEM: TIMESTEP
1000
ITEM: NUMBER OF ATOMS
401
ITEM: BOX BOUNDS pp pp pp
-1.0000000000000000e+03 1.0000000000000000e+03
-1.0000000000000000e+03 1.0000000000000000e+03
-1.0000000000000000e+03 1.0000000000000000e+03
ITEM: ATOMS id x y z ix iy iz
1 0.35373 1.06324 3.93704 0 0 0
2 0.82411 0.82919 4.84819 0 0 0
3 0.73787 0.30691 5.65462 0 0 0
4 0.30464 -0.31454 6.37908 0 0 0
5 0.30056 0.52486 6.80124 0 0 0
6 1.23989 0.48235 7.10665 0 0 0
7 0.83636 0.27134 7.95888 0 0 0
8 0.77191 -0.23616 8.77324 0 0 0
9 0.05077 0.27884 9.02664 0 0 0
10 0.31132 1.01442 9.70697 0 0 0
11 1.07431 0.58758 10.24227 0 0 0
12 1.15079 0.11318 11.05198 0 0 0
13 1.06670 -0.47013 11.88211 0 0 0
14 0.77811 0.46677 12.10813 0 0 0
15 0.46969 0.97231 12.95648 0 0 0
16 0.48454 1.63553 13.71187 0 0 0
17 0.59868 1.30424 14.85332 0 0 0
18 0.65320 0.98055 15.75710 0 0 0
19 0.54076 1.08023 16.70121 0 0 0
20 0.16605 1.45987 17.52696 0 0 0
21 0.49582 1.57384 18.44890 0 0 0
22 0.68918 1.55753 19.40655 0 0 0
23 1.21567 1.55524 20.23647 0 0 0
24 1.57005 0.87006 20.94516 0 0 0
25 1.40122 0.45280 21.82032 0 0 0
26 1.17557 0.43521 22.77988 0 0 0
27 1.20135 0.92518 23.73146 0 0 0
28 1.16244 0.87203 24.65695 0 0 0
29 0.51632 0.65576 25.54504 0 0 0
30 0.29658 -0.28235 25.85256 0 0 0
31 -0.13859 -0.77295 26.60760 0 0 0
32 0.09186 -1.04329 27.54153 0 0 0
33 0.42574 -1.27181 28.43799 0 0 0
34 0.23378 -1.39634 29.39687 0 0 0
35 0.57632 -0.69777 30.03681 0 0 0
36 0.39377 -0.79702 30.95972 0 0 0
37 0.20939 -1.28133 31.77010 0 0 0
38 -0.26049 -1.59807 32.60935 0 0 0
39 -0.76939 -1.69484 33.42597 0 0 0
40 -1.06323 -1.51150 34.38548 0 0 0
41 -0.97123 -1.37200 35.35126 0 0 0
42 -0.64065 -0.66155 35.93608 0 0 0
43 -0.66430 -0.25610 36.90711 0 0 0
44 -0.01038 -0.08232 37.65599 0 0 0
45 -0.52116 0.62611 38.00010 0 0 0
46 -0.34568 1.41641 38.49962 0 0 0
47 -0.88139 1.90010 39.25282 0 0 0
48 -0.87984 2.56895 39.98915 0 0 0
49 -1.01262 3.36109 40.62657 0 0 0
50 -1.11992 3.67474 41.50579 0 0 0
51 -1.62775 4.25197 42.09222 0 0 0
52 -1.84243 4.76804 42.90449 0 0 0
53 -1.78836 5.28962 43.68093 0 0 0
54 -1.43423 5.27782 44.54940 0 0 0
55 -1.54373 5.82308 45.32578 0 0 0
56 -2.06269 6.58043 45.45052 0 0 0
57 -2.44443 6.59709 46.32307 0 0 0
58 -2.27197 7.42909 46.81212 0 0 0
59 -1.95388 8.30942 47.06800 0 0 0
60 -1.89623 9.08296 46.41635 0 0 0
61 -1.67422 9.52072 47.24670 0 0 0
62 -2.54645 10.11326 47.04619 0 0 0
63 -3.06572 10.96816 47.12757 0 0 0
64 -3.37107 11.11131 48.01246 0 0 0
65 -3.81776 11.32286 48.86085 0 0 0
66 -4.37072 11.85697 49.51123 0 0 0
67 -4.90835 12.47852 50.12087 0 0 0
68 -5.38001 13.37953 50.08216 0 0 0
69 -4.95354 14.22295 50.17126 0 0 0
70 -4.73678 14.99139 50.79270 0 0 0
71 -4.36851 15.09414 51.64315 0 0 0
72 -5.33514 15.14328 51.75592 0 0 0
73 -5.28324 15.78804 52.54130 0 0 0
74 -4.98666 15.42321 53.38365 0 0 0
75 -4.19631 15.34641 54.02349 0 0 0
76 -4.25745 15.80880 54.92087 0 0 0
77 -4.62075 16.49827 55.41608 0 0 0
78 -4.85235 17.29891 55.91844 0 0 0
79 -5.50349 18.01071 56.21006 0 0 0
80 -5.92139 18.29246 57.04660 0 0 0
81 -5.99963 17.27696 57.11736 0 0 0
82 -0.03786 -1.65397 35.17917 0 0 0
83 0.83821 -2.02407 34.90112 0 0 0
84 1.80376 -2.11231 35.16391 0 0 0
85 2.61625 -2.78039 35.04437 0 0 0
86 3.53888 -2.66174 35.28531 0 0 0
87 4.51949 -2.77249 35.11699 0 0 0
88 5.33172 -3.23664 35.34647 0 0 0
89 6.24896 -3.63773 35.50884 0 0 0
90 7.21908 -3.61764 35.84670 0 0 0
91 8.14283 -3.87565 36.01478 0 0 0
92 9.03125 -3.75381 35.75696 0 0 0
93 9.93725 -4.21905 35.47279 0 0 0
94 10.49450 -4.99738 35.26196 0 0 0
95 11.10477 -5.47194 35.88382 0 0 0
96 11.88957 -5.83949 36.47337 0 0 0
97 12.72152 -6.04157 36.15211 0 0 0
98 13.69102 -6.33175 35.80510 0 0 0
99 14.61782 -6.39822 35.38026 0 0 0
100 15.58876 -6.44925 35.53369 0 0 0
101 16.51770 -6.41399 35.87673 0 0 0
102 17.41677 -6.56729 35.58931 0 0 0
103 17.99256 -6.14541 34.95053 0 0 0
104 18.32826 -7.04323 35.11346 0 0 0
105 18.96270 -7.66473 34.80566 0 0 0
106 19.92341 -7.61341 34.57382 0 0 0
107 20.35000 -7.06695 35.31785 0 0 0
108 20.91193 -7.87017 35.60328 0 0 0
109 21.75333 -8.21779 36.00878 0 0 0
110 22.23863 -9.09571 36.36334 0 0 0
111 21.91690 -9.95076 36.79141 0 0 0
112 22.35458 -10.73465 37.15568 0 0 0
113 23.22906 -11.12212 37.45308 0 0 0
114 23.47837 -11.06923 38.38620 0 0 0
115 24.00396 -11.87969 38.31911 0 0 0
116 24.95592 -12.30950 38.08620 0 0 0
117 25.86332 -11.90562 37.83968 0 0 0
118 25.91415 -12.74358 38.27210 0 0 0
119 26.92375 -13.26038 38.44374 0 0 0
120 27.94312 -13.46249 38.56507 0 0 0
121 27.94073 -12.51266 38.55060 0 0 0
122 -1.89332 -1.52119 35.52260 0 0 0
123 -2.89628 -1.70212 35.32839 0 0 0
124 -3.71604 -2.21263 34.96433 0 0 0
125 -4.02586 -2.91843 35.58182 0 0 0
126 -4.77882 -3.43019 35.87449 0 0 0
127 -5.70668 -3.80823 36.33132 0 0 0
128 -6.28265 -4.68001 36.45484 0 0 0
129 -6.79309 -5.48181 36.21961 0 0 0
130 -7.58927 -6.14244 36.23634 0 0 0
131 -8.36666 -6.57719 35.88884 0 0 0
132 -9.29078 -6.84766 36.13505 0 0 0
133 -10.01619 -7.56619 36.14993 0 0 0
134 -10.91340 -7.88384 35.89201 0 0 0
135 -11.41841 -8.72857 36.08258 0 0 0
136 -12.14022 -9.35483 35.92177 0 0 0
137 -13.01786 -9.86808 35.53743 0 0 0
138 -13.89715 -9.99958 35.95138 0 0 0
139 -14.52692 -10.60793 35.48576 0 0 0
140 -14.85507 -11.47593 35.32401 0 0 0
141 -15.57281 -12.18579 35.18264 0 0 0
142 -16.06855 -12.97450 35.22189 0 0 0
143 -16.54424 -13.84217 35.28046 0 0 0
144 -17.29948 -14.28987 34.89311 0 0 0
145 -18.16185 -14.64151 35.16550 0 0 0
146 -18.82632 -15.31085 35.39211 0 0 0
147 -19.72013 -15.75763 35.24327 0 0 0
148 -19.93869 -16.62364 34.86186 0 0 0
149 -20.81112 -17.07469 34.81155 0 0 0
150 -21.76933 -17.54166 34.66547 0 0 0
151 -22.48642 -18.23040 34.71209 0 0 0
152 -23.26625 -18.81079 34.83787 0 0 0
153 -23.87357 -19.58381 34.83366 0 0 0
154 -24.69652 -20.07574 34.43046 0 0 0
155 -25.48379 -20.76864 34.46938 0 0 0
156 -26.42657 -20.92161 34.79452 0 0 0
157 -27.10058 -21.61699 34.92939 0 0 0
158 -27.87483 -22.14363 34.40625 0 0 0
159 -28.67075 -22.71229 34.16508 0 0 0
160 -29.55457 -22.91733 33.65048 0 0 0
161 -30.36720 -23.40480 33.80556 0 0 0
162 -30.25730 -23.98676 34.62071 0 0 0
163 -30.21849 -24.79844 35.17202 0 0 0
164 -30.11759 -25.70672 35.53749 0 0 0
165 -30.17263 -26.62143 35.97814 0 0 0
166 -30.60190 -27.48980 35.88989 0 0 0
167 -29.79252 -27.92926 35.53471 0 0 0
168 -29.24355 -28.66161 35.06831 0 0 0
169 -28.70243 -29.54946 34.90562 0 0 0
170 -28.41488 -30.33819 35.39915 0 0 0
171 -27.71855 -31.06469 35.39379 0 0 0
172 -27.24716 -31.93484 35.29482 0 0 0
173 -26.90444 -32.88927 35.37561 0 0 0
174 -26.37201 -33.77737 35.33941 0 0 0
175 -25.65544 -34.53007 35.49739 0 0 0
176 -25.52417 -35.44486 35.27719 0 0 0
177 -25.27134 -36.22546 35.85369 0 0 0
178 -25.25263 -37.20388 35.91632 0 0 0
179 -25.27640 -38.16466 35.87593 0 0 0
180 -24.80163 -39.05792 35.67707 0 0 0
181 -25.00044 -39.98200 35.40103 0 0 0
182 -25.08037 -40.91620 35.56139 0 0 0
183 -24.96049 -41.88027 35.68745 0 0 0
184 -24.31412 -42.60269 35.74552 0 0 0
185 -24.49075 -43.42195 35.25340 0 0 0
186 -25.15065 -44.12638 35.20457 0 0 0
187 -25.16581 -44.98240 35.57153 0 0 0
188 -24.70434 -45.71301 36.17258 0 0 0
189 -24.70496 -46.73052 36.27908 0 0 0
190 -24.56362 -47.71710 36.40819 0 0 0
191 -24.52544 -47.99049 35.41760 0 0 0
192 -24.76524 -48.79390 35.89613 0 0 0
193 -24.07943 -49.63141 36.16178 0 0 0
194 -23.43299 -50.38142 36.35206 0 0 0
195 -23.18866 -51.21150 36.93916 0 0 0
196 -22.89681 -52.12063 36.53015 0 0 0
197 -22.85665 -53.08492 36.34032 0 0 0
198 -23.24520 -53.60831 35.63395 0 0 0
199 -22.44931 -54.04703 35.33468 0 0 0
200 -22.39461 -54.98746 35.48078 0 0 0
201 -23.24498 -55.43613 35.54000 0 0 0
202 -30.29822 -23.60290 32.76109 0 0 0
203 -30.62916 -23.42469 31.84991 0 0 0
204 -30.43721 -22.89190 31.05245 0 0 0
205 -30.64045 -22.36441 30.21771 0 0 0
206 -31.02128 -22.01203 29.42815 0 0 0
207 -30.52522 -21.39976 28.86850 0 0 0
208 -30.73327 -21.45128 27.96274 0 0 0
209 -31.24589 -21.40872 27.17605 0 0 0
210 -31.73156 -20.78980 26.54701 0 0 0
211 -31.83262 -20.33604 25.65036 0 0 0
212 -32.34666 -20.01562 24.94722 0 0 0
213 -32.07939 -19.71224 24.03201 0 0 0
214 -32.00797 -19.20850 23.15570 0 0 0
215 -32.58978 -19.42924 22.45608 0 0 0
216 -32.81680 -19.45872 21.48877 0 0 0
217 -33.62053 -19.59727 20.77957 0 0 0
218 -33.68852 -19.38341 19.82626 0 0 0
219 -33.82214 -18.84364 18.93031 0 0 0
220 -33.91347 -18.16526 18.24298 0 0 0
221 -34.14825 -17.80637 17.29030 0 0 0
222 -34.06417 -17.91140 16.31967 0 0 0
223 -33.89193 -17.58544 15.38035 0 0 0
224 -33.36706 -17.70632 14.52443 0 0 0
225 -33.57443 -17.61759 13.54567 0 0 0
226 -33.76179 -18.11327 12.76944 0 0 0
227 -34.75924 -17.79481 12.71999 0 0 0
228 -35.02184 -18.41361 11.99176 0 0 0
229 -35.66598 -18.46912 11.25957 0 0 0
230 -36.02190 -17.95295 10.50860 0 0 0
231 -35.91536 -17.70210 9.58011 0 0 0
232 -35.80691 -17.32410 8.66175 0 0 0
233 -35.59462 -16.86263 7.89023 0 0 0
234 -35.82051 -15.99479 7.37249 0 0 0
235 -35.57607 -16.27509 6.43496 0 0 0
236 -36.26531 -16.51350 5.75035 0 0 0
237 -35.79352 -17.48269 5.88673 0 0 0
238 -35.06612 -18.12208 6.03977 0 0 0
239 -34.98276 -19.08847 6.19270 0 0 0
240 -34.12136 -18.75274 6.10132 0 0 0
241 -33.34640 -18.98173 5.59391 0 0 0
242 -31.09652 -23.40252 34.50916 0 0 0
243 -31.58258 -23.19548 35.44467 0 0 0
244 -32.54711 -22.92044 35.80372 0 0 0
245 -33.43465 -23.07545 36.15045 0 0 0
246 -34.33605 -23.30464 36.60646 0 0 0
247 -34.96784 -23.42438 37.34395 0 0 0
248 -35.59065 -23.34530 37.99453 0 0 0
249 -36.04948 -23.14345 38.84264 0 0 0
250 -37.04590 -22.93473 39.06254 0 0 0
251 -37.86147 -23.46476 38.96073 0 0 0
252 -38.56337 -23.12116 39.67221 0 0 0
253 -39.45164 -23.35510 40.20245 0 0 0
254 -40.19568 -23.46477 40.86218 0 0 0
255 -40.77503 -23.30350 41.58848 0 0 0
256 -41.71672 -23.01242 41.64226 0 0 0
257 -42.64211 -22.75582 41.83767 0 0 0
258 -43.08185 -22.38513 42.64538 0 0 0
259 -43.80612 -21.83384 42.96112 0 0 0
260 -44.90083 -21.58560 42.95539 0 0 0
261 -45.50009 -21.41812 43.75000 0 0 0
262 -46.36300 -21.52308 44.33530 0 0 0
263 -47.08291 -21.19061 44.93308 0 0 0
264 -47.97134 -20.96639 45.49228 0 0 0
265 -48.53005 -20.88378 46.32241 0 0 0
266 -49.30173 -20.69622 46.98701 0 0 0
267 -50.02425 -20.06310 47.26458 0 0 0
268 -50.55288 -19.57859 47.91527 0 0 0
269 -51.39961 -19.36815 48.42830 0 0 0
270 -52.31351 -19.30107 48.68394 0 0 0
271 -53.15838 -19.25423 49.15224 0 0 0
272 -53.72255 -19.38089 49.92625 0 0 0
273 -54.54920 -19.51165 50.52258 0 0 0
274 -55.08996 -19.51293 51.34704 0 0 0
275 -55.91273 -19.31813 51.89986 0 0 0
276 -56.63529 -19.48533 52.60361 0 0 0
277 -57.59390 -19.62463 52.75803 0 0 0
278 -58.52179 -19.69484 53.08855 0 0 0
279 -59.44961 -19.53047 53.35779 0 0 0
280 -60.13558 -19.73139 54.04120 0 0 0
281 -60.91869 -19.61015 54.65567 0 0 0
282 -61.43963 -20.15383 55.27667 0 0 0
283 -61.79742 -21.03393 55.04595 0 0 0
284 -62.30429 -21.71572 54.53442 0 0 0
285 -62.55726 -22.69389 54.58021 0 0 0
286 -62.98798 -23.56026 54.28062 0 0 0
287 -63.11933 -24.12682 53.62948 0 0 0
288 -63.26734 -25.01783 53.27534 0 0 0
289 -64.06067 -25.48309 53.41578 0 0 0
290 -64.59633 -25.96012 52.67314 0 0 0
291 -65.15050 -26.77398 52.61359 0 0 0
292 -65.29702 -27.71291 52.29619 0 0 0
293 -65.74867 -28.15008 51.59696 0 0 0
294 -66.43395 -28.85000 51.74497 0 0 0
295 -66.85191 -29.68475 51.80442 0 0 0
296 -67.51985 -30.32648 52.07600 0 0 0
297 -67.33833 -31.30504 51.84067 0 0 0
298 -67.44886 -32.25324 51.81129 0 0 0
299 -68.14779 -32.96982 51.56319 0 0 0
300 -68.54579 -33.63809 51.01621 0 0 0
301 -69.12137 -34.25635 50.37102 0 0 0
302 -69.63699 -35.11846 50.22203 0 0 0
303 -70.25178 -35.93229 50.37338 0 0 0
304 -70.53394 -36.74966 50.04224 0 0 0
305 -70.35131 -37.33986 49.31729 0 0 0
306 -70.70301 -38.27449 49.03366 0 0 0
307 -71.26077 -38.76811 48.42542 0 0 0
308 -70.72311 -39.47101 47.95893 0 0 0
309 -70.54370 -40.33895 48.40402 0 0 0
310 -71.52613 -40.36820 48.64423 0 0 0
311 -72.01782 -41.13364 48.67073 0 0 0
312 -72.31209 -42.06317 48.37366 0 0 0
313 -72.33968 -43.02001 48.14584 0 0 0
314 -72.46614 -43.82870 47.59818 0 0 0
315 -73.30158 -44.40745 47.43877 0 0 0
316 -74.22099 -44.83193 47.35554 0 0 0
317 -74.73763 -45.03258 46.59214 0 0 0
318 -73.87790 -45.40973 46.24297 0 0 0
319 -73.78930 -46.36492 46.10096 0 0 0
320 -74.29682 -47.27389 45.98081 0 0 0
321 -74.72589 -46.74139 46.63975 0 0 0
322 -61.67210 -19.08957 54.80532 0 0 0
323 -62.47383 -18.49632 54.89445 0 0 0
324 -63.28966 -17.91041 54.65130 0 0 0
325 -63.84632 -17.34834 54.02282 0 0 0
326 -64.42118 -16.57478 54.27496 0 0 0
327 -65.22225 -15.91645 54.10308 0 0 0
328 -66.12954 -15.74167 54.49320 0 0 0
329 -66.80176 -15.11096 55.08283 0 0 0
330 -67.55972 -14.86116 54.62478 0 0 0
331 -68.15607 -14.12744 54.88969 0 0 0
332 -68.81743 -13.35479 54.96687 0 0 0
333 -69.52445 -12.72745 55.26317 0 0 0
334 -70.23526 -12.03507 55.07031 0 0 0
335 -71.13818 -11.57228 54.93254 0 0 0
336 -71.91002 -10.97352 55.02911 0 0 0
337 -72.83771 -10.58864 54.91104 0 0 0
338 -73.70030 -10.48308 54.44522 0 0 0
339 -74.61106 -10.27267 54.37558 0 0 0
340 -75.07715 -9.48809 53.94620 0 0 0
341 -75.21596 -8.57000 53.56721 0 0 0
342 -76.02052 -8.00030 53.36781 0 0 0
343 -76.76543 -7.34391 53.20791 0 0 0
344 -76.96505 -6.40598 52.87616 0 0 0
345 -77.74389 -6.00520 52.29702 0 0 0
346 -78.53711 -5.72887 51.74572 0 0 0
347 -79.13283 -4.92034 52.08174 0 0 0
348 -79.70501 -4.49105 51.47124 0 0 0
349 -80.02762 -3.65799 51.19250 0 0 0
350 -80.31515 -2.80723 51.01785 0 0 0
351 -81.28234 -2.38679 50.87284 0 0 0
352 -81.98414 -2.95501 50.59750 0 0 0
353 -82.10435 -2.24084 49.85281 0 0 0
354 -82.95367 -1.97391 49.52014 0 0 0
355 -83.80785 -1.65567 49.12270 0 0 0
356 -84.26165 -1.04626 48.53824 0 0 0
357 -85.09707 -0.66412 49.00706 0 0 0
358 -85.08678 -0.22070 49.84202 0 0 0
359 -84.90616 -0.04922 50.76273 0 0 0
360 -84.94202 0.38656 51.67757 0 0 0
361 -85.42598 0.91776 52.38551 0 0 0
362 -60.19780 -19.50487 55.26622 0 0 0
363 -60.40647 -19.90502 56.17525 0 0 0
364 -59.86100 -20.08570 56.96235 0 0 0
365 -60.06611 -20.40159 57.92479 0 0 0
366 -59.57565 -20.65676 58.82922 0 0 0
367 -59.44686 -20.66723 59.80799 0 0 0
368 -59.95426 -20.59619 60.65387 0 0 0
369 -59.91907 -20.55299 61.70636 0 0 0
370 -60.10481 -20.28684 62.64845 0 0 0
371 -59.81022 -20.72587 63.42425 0 0 0
372 -59.25898 -20.99483 64.20364 0 0 0
373 -58.93192 -21.25208 65.08410 0 0 0
374 -58.54592 -21.19791 66.01120 0 0 0
375 -57.86361 -21.03514 66.71934 0 0 0
376 -57.97035 -21.18106 67.72348 0 0 0
377 -57.87809 -20.96322 68.65783 0 0 0
378 -57.10185 -21.13335 69.22790 0 0 0
379 -56.35497 -21.03363 69.81606 0 0 0
380 -56.36317 -20.96939 70.81563 0 0 0
381 -55.98087 -21.17398 71.67958 0 0 0