LAMMPS data file for tree

1939 atoms
7783 bonds
57903 angles

1 atom types
1 bond types
1 angle types

-30 800 xlo xhi
-30 900 ylo yhi
-20 180 zlo zhi

Masses

1 1
2 1

Atoms

1   1   1   23.981   44.6899   2.01138
2   1   1   24.3568   44.7645   2.06629
3   1   1   24.7275   44.8512   1.99272
4   1   1   25.0666   44.9417   1.99008
5   1   1   25.3444   44.9665   1.96377
6   1   1   25.6763   45.0606   1.94458
7   1   1   26.0055   45.1056   1.89953
8   1   1   26.3146   45.173   1.87515
9   1   1   26.6366   45.2444   1.86831
10   1   1   26.9663   45.2971   1.85469
11   1   1   27.3394   45.3834   1.80879
12   1   1   27.6501   45.4169   1.80142
13   1   1   27.9217   45.5397   1.8091
14   1   1   28.2253   45.5788   1.80086
15   1   1   28.4988   45.7918   1.73327
16   1   1   28.7258   45.3094   1.77783
17   1   1   18.0181   86.3605   2.38431
18   1   1   17.8916   85.9123   2.25457
19   1   1   17.8552   85.5798   2.17834
20   1   1   26.2496   55.5333   1.17295
21   1   1   28.7461   46.0952   1.69972
22   1   1   28.9965   45.0637   1.79992
23   1   1   25.6374   55.5838   1.06077
24   1   1   25.856   55.6001   1.10139
25   1   1   26.6631   55.3222   1.25378
26   1   1   17.7556   85.2875   2.09741
27   1   1   25.2659   55.6905   1.01687
28   1   1   26.9909   54.977   1.28726
29   1   1   27.2447   54.7561   1.30548
30   1   1   28.8098   46.4412   1.68908
31   1   1   24.8389   55.7489   0.946059
32   1   1   26.8852   55.1827   1.27483
33   1   1   27.3876   54.6261   1.3133
34   1   1   27.5289   54.4092   1.33044
35   1   1   29.6765   48.6131   1.48893
36   1   1   29.5591   48.2447   1.51527
37   1   1   29.4699   48.0283   1.52802
38   1   1   29.3313   47.6949   1.57429
39   1   1   29.2575   47.3485   1.62652
40   1   1   29.1024   47.0803   1.58574
41   1   1   29.0027   46.8536   1.59204
42   1   1   29.1586   44.9196   1.80013
43   1   1   17.6884   85.0268   2.05574
44   1   1   23.7081   55.9158   0.772878
45   1   1   24.0091   55.8427   0.851577
46   1   1   24.2725   55.8121   0.858587
47   1   1   24.5868   55.7855   0.91142
48   1   1   27.7219   54.1906   1.36294
49   1   1   27.9449   53.9707   1.38294
50   1   1   28.1012   53.7518   1.36839
51   1   1   28.2804   53.5363   1.39816
52   1   1   28.4819   53.3158   1.40668
53   1   1   28.6216   53.1227   1.39408
54   1   1   28.8448   52.8416   1.39984
55   1   1   29.0026   52.6486   1.40518
56   1   1   29.2153   52.4178   1.43294
57   1   1   29.4217   52.1845   1.41614
58   1   1   29.7213   51.8418   1.42106
59   1   1   29.8944   49.2604   1.45577
60   1   1   29.7839   48.9555   1.48735
61   1   1   23.2201   56.0015   0.703526
62   1   1   23.5036   55.94   0.731557
63   1   1   30.0054   49.6159   1.45778
64   1   1   22.9817   56.02   0.68557
65   1   1   26.7225   55.4645   1.25883
66   1   1   29.9442   51.5997   1.44789
67   1   1   30.1093   49.8847   1.47387
68   1   1   29.4402   44.5874   1.82847
69   1   1   17.6145   84.6746   1.96755
70   1   1   22.4238   56.1146   0.586464
71   1   1   22.7092   56.0449   0.623462
72   1   1   30.2225   50.1699   1.46241
73   1   1   21.8199   56.212   0.476603
74   1   1   22.1258   56.1547   0.533752
75   1   1   30.0973   51.4114   1.43159
76   1   1   30.3003   50.4383   1.44698
77   1   1   21.5202   56.2644   0.460013
78   1   1   26.703   55.8128   1.26876
79   1   1   29.6673   44.4039   1.85483
80   1   1   17.5232   84.3349   1.83155
81   1   1   19.6609   56.5666   0.206421
82   1   1   20.0232   56.5014   0.263086
83   1   1   20.387   56.4468   0.286816
84   1   1   20.6468   56.4119   0.350062
85   1   1   20.9158   56.3802   0.359847
86   1   1   21.269   56.3034   0.408726
87   1   1   30.4903   50.9969   1.4497
88   1   1   30.4202   50.8156   1.47374
89   1   1   19.3284   56.6176   0.180344
90   1   1   29.7427   44.1661   1.83378
91   1   1   17.9723   56.7659   0.113027
92   1   1   18.3562   56.7331   0.113483
93   1   1   18.654   56.6601   0.134941
94   1   1   18.9769   56.6478   0.126835
95   1   1   26.7871   56.225   1.30721
96   1   1   30.1069   44.3595   1.8473
97   1   1   17.4673   84.0179   1.77146
98   1   1   17.7084   56.8021   0.0771327
99   1   1   30.7016   51.067   1.47153
100   1   1   29.6538   43.9115   1.8093
101   1   1   17.2673   56.8263   0.0142403
102   1   1   29.5917   43.6241   1.78206
103   1   1   14.7346   57.1093   -0.172488
104   1   1   15.0172   57.0816   -0.139561
105   1   1   15.3014   57.0434   -0.114233
106   1   1   15.59   57.0474   -0.0848025
107   1   1   15.8551   57.0148   -0.0820672
108   1   1   16.0922   56.9785   -0.0709768
109   1   1   16.3586   56.9491   -0.0286593
110   1   1   16.6768   56.9057   -0.00403892
111   1   1   16.8812   56.8678   0.038973
112   1   1   26.9056   56.5231   1.34542
113   1   1   30.4377   44.3625   1.88173
114   1   1   29.4317   43.2223   1.77382
115   1   1   17.3866   83.629   1.73206
116   1   1   14.2332   57.1704   -0.185067
117   1   1   31.0376   51.1398   1.48224
118   1   1   29.3386   42.893   1.77582
119   1   1   13.9288   57.2328   -0.223578
120   1   1   26.9697   56.8356   1.38483
121   1   1   30.6812   44.3816   1.90845
122   1   1   29.1842   42.4846   1.76726
123   1   1   17.3414   83.3467   1.6195
124   1   1   31.3618   51.2522   1.49341
125   1   1   29.0173   42.0803   1.7487
126   1   1   13.4077   57.3094   -0.24207
127   1   1   28.8352   41.6882   1.73846
128   1   1   27.0542   57.2095   1.42807
129   1   1   31.0131   44.4483   1.91646
130   1   1   28.7606   41.2704   1.69188
131   1   1   17.2843   82.987   1.56911
132   1   1   12.9866   57.355   -0.251422
133   1   1   31.6459   51.3308   1.48463
134   1   1   28.6447   40.8505   1.64728
135   1   1   28.5789   40.4584   1.61872
136   1   1   12.6234   57.4328   -0.258529
137   1   1   27.1034   57.5027   1.45522
138   1   1   31.3816   44.4863   1.93858
139   1   1   17.1982   82.7059   1.47932
140   1   1   32.0131   51.4501   1.5036
141   1   1   28.5304   39.994   1.55096
142   1   1   12.2136   57.4805   -0.24379
143   1   1   27.1857   57.8254   1.48484
144   1   1   31.671   44.5442   1.96154
145   1   1   17.1717   82.3909   1.35052
146   1   1   11.7802   57.6227   -0.335958
147   1   1   32.2766   51.5535   1.49263
148   1   1   28.4694   39.6038   1.53325
149   1   1   11.2295   57.7189   -0.322182
150   1   1   27.2591   58.1882   1.56036
151   1   1   32.0819   44.5652   1.96482
152   1   1   17.128   82.1139   1.32251
153   1   1   32.6171   51.6612   1.48883
154   1   1   28.4522   39.2985   1.47252
155   1   1   27.3041   58.5164   1.57543
156   1   1   32.3597   44.6092   2.03555
157   1   1   17.0885   81.7526   1.21657
158   1   1   32.9139   51.7286   1.50224
159   1   1   28.3767   38.9156   1.45481
160   1   1   23.6823   36.0896   -0.0532565
161   1   1   27.3849   58.7985   1.5981
162   1   1   32.7005   44.5975   2.01902
163   1   1   28.3021   38.6352   1.42467
164   1   1   17.0604   81.4732   1.11683
165   1   1   33.2405   51.841   1.47535
166   1   1   28.3037   38.3012   1.38089
167   1   1   24.0199   35.7043   -0.0359199
168   1   1   28.266   37.8806   1.29901
169   1   1   27.375   59.2746   1.59913
170   1   1   33.0187   44.6353   2.05366
171   1   1   17.0005   81.193   1.03281
172   1   1   33.5528   51.9515   1.42784
173   1   1   28.2494   37.5747   1.26095
174   1   1   24.2843   35.4981   0.00855196
175   1   1   27.4291   59.6164   1.66655
176   1   1   33.3808   44.6175   2.10557
177   1   1   16.9632   80.8415   0.949844
178   1   1   33.8302   52.0237   1.40013
179   1   1   28.2037   37.1321   1.16662
180   1   1   24.4666   35.2576   -0.0476284
181   1   1   27.4515   60.0122   1.69611
182   1   1   33.7197   44.6346   2.11267
183   1   1   16.9463   80.5216   0.866403
184   1   1   34.1805   52.1408   1.37503
185   1   1   28.2013   36.8599   1.11364
186   1   1   24.6883   34.9994   -0.0544254
187   1   1   27.4878   60.386   1.69636
188   1   1   34.0445   44.5805   2.10106
189   1   1   16.9405   80.1822   0.769697
190   1   1   27.5471   60.7112   1.70592
191   1   1   34.4434   52.213   1.39198
192   1   1   28.2168   36.473   1.05713
193   1   1   24.9481   34.772   -0.073822
194   1   1   27.5329   61.0471   1.70092
195   1   1   34.4136   44.5727   2.1453
196   1   1   16.9018   79.9605   0.719306
197   1   1   16.8583   79.64   0.610571
198   1   1   16.8886   79.3553   0.543488
199   1   1   16.8288   78.9868   0.390661
200   1   1   16.8023   78.7724   0.34786
201   1   1   16.7924   78.4231   0.250459
202   1   1   17.9984   76.1371   0.262859
203   1   1   18.2517   75.813   0.269709
204   1   1   34.7379   52.2987   1.37383
205   1   1   28.2771   36.1518   0.982596
206   1   1   25.1408   34.4942   -0.0680457
207   1   1   16.8087   78.0639   0.156011
208   1   1   17.7161   76.529   0.212602
209   1   1   17.871   76.3275   0.232065
210   1   1   18.444   75.5975   0.319295
211   1   1   27.5398   61.3854   1.69663
212   1   1   17.1469   77.2055   0.115986
213   1   1   17.2766   77.0919   0.129562
214   1   1   17.4868   76.8255   0.142208
215   1   1   18.691   75.2313   0.354942
216   1   1   34.7371   44.6026   2.18326
217   1   1   16.6686   77.8204   0.0264188
218   1   1   17.0459   77.4013   0.0964463
219   1   1   35.0392   52.4374   1.37012
220   1   1   28.2753   35.7473   0.912092
221   1   1   25.2975   34.2894   -0.0796127
222   1   1   19.0098   74.8189   0.422581
223   1   1   27.5459   61.76   1.73646
224   1   1   34.9585   44.5872   2.17855
225   1   1   16.5936   77.8194   -0.00345965
226   1   1   19.1919   74.5345   0.448095
227   1   1   27.551   62.165   1.73598
228   1   1   35.3919   52.5653   1.36696
229   1   1   28.2949   35.4319   0.826437
230   1   1   25.6276   34.0884   -0.0838673
231   1   1   19.4349   74.2552   0.510999
232   1   1   27.5184   62.5401   1.7471
233   1   1   35.2728   44.5558   2.20342
234   1   1   15.848   86.9574   9.81747e-05
235   1   1   16.2601   77.7632   -0.173147
236   1   1   19.6749   73.9755   0.551524
237   1   1   27.5057   62.8103   1.73622
238   1   1   35.7239   52.7069   1.38048
239   1   1   28.3745   35.0812   0.751998
240   1   1   26.6184   33.9376   0.108232
241   1   1   26.377   33.9455   0.0619507
242   1   1   26.1776   34.0106   0.0122717
243   1   1   25.8988   33.9898   -0.0413727
244   1   1   25.6772   67.2481   1.34286
245   1   1   25.861   67.033   1.36995
246   1   1   26.0623   66.8549   1.40144
247   1   1   26.205   66.6842   1.40435
248   1   1   26.4528   66.4726   1.44209
249   1   1   27.4717   63.5493   1.73001
250   1   1   27.4899   63.1445   1.69281
251   1   1   26.9124   33.8967   0.141456
252   1   1   25.4121   33.8273   -0.192679
253   1   1   19.839   73.7978   0.629403
254   1   1   24.7561   68.091   1.25392
255   1   1   24.9954   67.8605   1.27588
256   1   1   25.2302   67.635   1.30865
257   1   1   25.4471   67.4621   1.30776
258   1   1   26.6937   66.2542   1.4742
259   1   1   26.8254   66.1024   1.47059
260   1   1   27.4803   63.8414   1.69393
261   1   1   35.4836   44.5417   2.24911
262   1   1   27.4505   34.0274   0.296287
263   1   1   16.2359   86.8308   -0.00423088
264   1   1   15.999   77.7271   -0.320459
265   1   1   20.0513   73.5584   0.685288
266   1   1   24.321   68.569   1.2259
267   1   1   24.4989   68.3499   1.23974
268   1   1   27.055   65.8723   1.49488
269   1   1   27.4402   64.1272   1.66052
270   1   1   36.0285   52.8018   1.37915
271   1   1   35.7556   44.6171   2.27665
272   1   1   35.8357   44.4145   2.27704
273   1   1   28.3603   34.6004   0.663466
274   1   1   25.1346   33.4999   -0.307083
275   1   1   20.3076   73.2372   0.741054
276   1   1   24.0928   68.7885   1.21805
277   1   1   27.4179   65.018   1.58388
278   1   1   27.4325   64.6723   1.62303
279   1   1   27.4141   64.4594   1.61474
280   1   1   27.7375   34.0913   0.353948
281   1   1   23.8992   69.0318   1.20642
282   1   1   27.3751   65.4978   1.56128
283   1   1   27.3725   65.1957   1.58218
284   1   1   36.1939   44.9206   2.34184
285   1   1   36.2219   44.1029   2.2867
286   1   1   24.889   33.2341   -0.352381
287   1   1   16.6048   86.5797   0.023237
288   1   1   15.6753   77.7266   -0.493323
289   1   1   20.4999   72.9677   0.796945
290   1   1   23.6733   69.2766   1.22955
291   1   1   36.3071   52.9137   1.37035
292   1   1   28.3633   34.5359   0.654805
293   1   1   28.0484   34.2757   0.487693
294   1   1   24.6218   32.877   -0.479502
295   1   1   20.7268   72.7159   0.838496
296   1   1   36.5196   45.1397   2.39691
297   1   1   36.4842   43.915   2.30744
298   1   1   27.6325   33.8569   0.276589
299   1   1   23.468   69.5218   1.22426
300   1   1   27.4377   65.7099   1.55086
301   1   1   28.7805   34.5709   0.74618
302   1   1   24.3835   32.5498   -0.584663
303   1   1   16.9162   86.3783   0.0179287
304   1   1   15.3925   77.6728   -0.602295
305   1   1   20.8831   72.5218   0.886673
306   1   1   36.6618   53.0062   1.43216
307   1   1   36.7811   43.6828   2.33442
308   1   1   21.0928   72.2304   0.944695
309   1   1   21.2813   72.0194   1.01483
310   1   1   23.2574   69.7597   1.22663
311   1   1   36.8328   45.3151   2.47686
312   1   1   27.5744   33.5369   0.202293
313   1   1   21.4074   71.8414   1.05687
314   1   1   21.5953   71.6875   1.09166
315   1   1   27.7831   65.9532   1.53646
316   1   1   36.966   53.1274   1.44876
317   1   1   29.1345   34.5517   0.814609
318   1   1   24.1226   32.221   -0.701856
319   1   1   17.1917   86.2219   0.0127464
320   1   1   15.0203   77.5998   -0.795425
321   1   1   21.7873   71.4626   1.12123
322   1   1   22.3225   70.8007   1.20823
323   1   1   22.6357   70.4833   1.23919
324   1   1   22.8208   70.2697   1.24455
325   1   1   23.0371   70.0301   1.24695
326   1   1   37.0727   43.4518   2.33521
327   1   1   21.9394   71.2117   1.14432
328   1   1   22.147   71.0044   1.17513
329   1   1   37.3186   53.2722   1.43519
330   1   1   37.2494   45.5102   2.50974
331   1   1   29.3783   34.5344   0.869832
332   1   1   27.6941   33.1881   0.100866
333   1   1   14.6721   77.5092   -1.10505
334   1   1   28.0707   66.1045   1.55687
335   1   1   29.7965   34.5137   1.01413
336   1   1   23.9646   31.9374   -0.83824
337   1   1   17.4888   86.0791   0.0292725
338   1   1   37.815   53.4471   1.46112
339   1   1   37.3412   43.2582   2.33963
340   1   1   30.0758   34.4612   1.04466
341   1   1   37.6833   45.6342   2.51817
342   1   1   27.7714   32.8418   0.0312935
343   1   1   28.3412   66.3181   1.54654
344   1   1   23.7607   31.5655   -0.895802
345   1   1   17.8226   85.8689   0.0582834
346   1   1   38.2207   53.6191   1.46527
347   1   1   37.5815   43.0914   2.37734
348   1   1   30.455   34.4445   1.09545
349   1   1   37.9747   45.7563   2.50202
350   1   1   27.7813   32.5246   -0.00816275
351   1   1   23.4986   31.1735   -1.05763
352   1   1   28.6084   66.5041   1.52755
353   1   1   23.3906   30.8462   -1.14844
354   1   1   18.0418   85.7102   0.0806264
355   1   1   38.6466   53.7133   1.43023
356   1   1   37.8615   42.8755   2.40765
357   1   1   30.8255   34.4304   1.16539
358   1   1   38.4978   45.8903   2.53229
359   1   1   27.844   32.2225   -0.10337
360   1   1   23.2124   30.5643   -1.25735
361   1   1   28.9014   66.7223   1.51313
362   1   1   39.0832   53.8992   1.43648
363   1   1   18.3422   85.5397   0.08581
364   1   1   38.1244   42.6506   2.43406
365   1   1   31.1235   34.4048   1.21076
366   1   1   23.0339   30.1312   -1.37167
367   1   1   39.4037   54.0419   1.40224
368   1   1   38.7852   46.0147   2.51259
369   1   1   27.8947   31.9074   -0.184922
370   1   1   29.1665   66.9264   1.52886
371   1   1   39.7812   54.1711   1.37583
372   1   1   22.9123   29.8263   -1.47683
373   1   1   18.6346   85.343   0.106757
374   1   1   38.3418   42.4334   2.45879
375   1   1   31.5586   34.3486   1.29775
376   1   1   39.1688   46.0936   2.51397
377   1   1   27.9561   31.5083   -0.249273
378   1   1   22.6912   29.3327   -1.61014
379   1   1   29.4532   67.1861   1.52854
380   1   1   40.0982   54.3665   1.3567
381   1   1   18.8876   85.1651   0.142574
382   1   1   38.637   42.2378   2.48393
383   1   1   31.8252   34.339   1.3486
384   1   1   39.5803   46.2247   2.49234
385   1   1   27.9923   31.2575   -0.312898
386   1   1   22.5744   29.0704   -1.72061
387   1   1   29.6759   67.3975   1.51656
388   1   1   40.3677   54.491   1.32967
389   1   1   19.1955   84.922   0.146717
390   1   1   38.9108   42.0253   2.53575
391   1   1   32.1479   34.3305   1.40404
392   1   1   40.0038   46.2254   2.40224
393   1   1   28.0923   30.8842   -0.401987
394   1   1   22.4034   28.7382   -1.84131
395   1   1   29.956   67.5801   1.56855
396   1   1   40.6588   54.6549   1.2962
397   1   1   19.4632   84.7424   0.208292
398   1   1   39.1935   41.8024   2.52208
399   1   1   32.4664   34.3161   1.44813
400   1   1   22.2047   28.3665   -1.95984
401   1   1   40.4223   46.2747   2.3295
402   1   1   28.1773   30.5733   -0.493059
403   1   1   30.1805   67.7865   1.58447
404   1   1   40.9328   54.8409   1.25131
405   1   1   22.0229   28.0572   -2.03853
406   1   1   19.7717   84.5409   0.222123
407   1   1   39.4219   41.6205   2.53222
408   1   1   32.7832   34.2991   1.48252
409   1   1   40.6975   46.2771   2.2447
410   1   1   28.1952   30.3332   -0.536755
411   1   1   30.4528   68.0908   1.59322
412   1   1   41.2562   55.0044   1.23404
413   1   1   21.8053   27.7071   -2.0858
414   1   1   19.9894   84.3509   0.230945
415   1   1   39.6973   41.4371   2.51234
416   1   1   33.087   34.2661   1.56621
417   1   1   41.1446   46.3104   2.18604
418   1   1   28.3154   29.9727   -0.644564
419   1   1   30.6992   68.3921   1.59028
420   1   1   41.5033   55.0571   1.17703
421   1   1   21.607   27.3706   -2.16636
422   1   1   20.2398   84.1649   0.256548
423   1   1   41.4962   55.5805   1.22501
424   1   1   39.9746   41.2511   2.53204
425   1   1   33.471   34.2084   1.60722
426   1   1   41.606   56.7297   1.36973
427   1   1   41.5383   56.3314   1.29844
428   1   1   41.5564   55.9634   1.27531
429   1   1   41.5467   55.817   1.25727
430   1   1   41.3747   46.3197   2.15489
431   1   1   28.3895   29.5874   -0.720791
432   1   1   23.7667   81.7349   0.602601
433   1   1   23.9492   81.5526   0.602676
434   1   1   24.163   81.3896   0.620674
435   1   1   24.4021   81.2119   0.652862
436   1   1   24.6057   81.0411   0.663889
437   1   1   24.8522   80.8519   0.672589
438   1   1   25.0287   80.7121   0.698324
439   1   1   30.9918   68.7317   1.63153
440   1   1   41.6243   56.989   1.34101
441   1   1   41.8322   54.8513   1.15542
442   1   1   21.4089   26.9528   -2.23101
443   1   1   20.439   84.0326   0.289235
444   1   1   23.2699   82.1137   0.55538
445   1   1   23.5316   81.8891   0.556703
446   1   1   25.2484   80.5592   0.716203
447   1   1   25.4735   80.3748   0.762629
448   1   1   41.6642   57.2942   1.37901
449   1   1   40.2181   41.0302   2.49068
450   1   1   33.7871   34.2031   1.68171
451   1   1   23.0612   82.2321   0.522565
452   1   1   25.6544   80.2164   0.772185
453   1   1   25.8808   80.0308   0.803657
454   1   1   41.678   57.7198   1.41679
455   1   1   41.7284   46.2666   2.08818
456   1   1   28.4821   29.2315   -0.796258
457   1   1   20.7526   83.8623   0.296404
458   1   1   22.194   82.8872   0.416114
459   1   1   22.4865   82.6922   0.470232
460   1   1   22.7521   82.4943   0.494197
461   1   1   26.0844   79.8643   0.828314
462   1   1   26.3023   79.6935   0.864339
463   1   1   26.5186   79.5092   0.897191
464   1   1   26.7334   79.3529   0.940908
465   1   1   27.6083   78.7395   1.0928
466   1   1   27.8549   78.579   1.13927
467   1   1   28.0545   78.4123   1.17738
468   1   1   28.2755   78.2458   1.19781
469   1   1   28.535   78.0809   1.23177
470   1   1   28.7487   77.9102   1.26659
471   1   1   31.1829   69.0687   1.63345
472   1   1   42.1045   54.7388   1.10006
473   1   1   21.2153   26.629   -2.31476
474   1   1   20.9608   83.7442   0.337866
475   1   1   21.1912   83.5607   0.343137
476   1   1   21.4069   83.4331   0.365856
477   1   1   21.6482   83.2792   0.382961
478   1   1   21.9166   83.0572   0.389792
479   1   1   26.9672   79.1965   0.971992
480   1   1   27.2156   79.0206   0.998173
481   1   1   27.4028   78.8901   1.04205
482   1   1   28.989   77.7373   1.29398
483   1   1   29.2398   77.5824   1.32747
484   1   1   41.6755   58.1295   1.436
485   1   1   40.4749   40.8821   2.46858
486   1   1   34.101   34.1818   1.68902
487   1   1   28.5806   28.8941   -0.901125
488   1   1   29.5494   77.395   1.35683
489   1   1   42.0817   46.2492   2.04661
490   1   1   29.8441   77.1586   1.37262
491   1   1   31.4574   69.4721   1.66804
492   1   1   42.3379   54.5264   1.05596
493   1   1   28.6889   28.5724   -1.00067
494   1   1   21.0847   26.3545   -2.31261
495   1   1   41.7749   58.4563   1.4391
496   1   1   40.7363   40.6716   2.4406
497   1   1   34.4272   34.1782   1.77502
498   1   1   28.7974   28.2748   -1.08722
499   1   1   28.91   27.9371   -1.22133
500   1   1   30.1615   76.9716   1.37097
501   1   1   42.2757   46.2318   1.99462
502   1   1   29.0591   27.6956   -1.31427
503   1   1   31.6154   69.9015   1.72448
504   1   1   42.6344   54.2933   1.0106
505   1   1   29.1699   27.3909   -1.47441
506   1   1   20.8786   25.8996   -2.38495
507   1   1   41.8134   58.8289   1.46683
508   1   1   40.9861   40.4833   2.39987
509   1   1   34.7777   34.1597   1.83558
510   1   1   29.3426   27.1016   -1.54402
511   1   1   30.5113   76.6992   1.41769
512   1   1   42.6196   46.2442   1.9331
513   1   1   31.8111   70.2864   1.77481
514   1   1   42.8979   54.1692   0.961093
515   1   1   29.5064   26.6832   -1.66175
516   1   1   20.7732   25.7043   -2.43532
517   1   1   30.9048   76.5209   1.45216
518   1   1   41.8707   59.1604   1.44145
519   1   1   41.3136   40.2701   2.3252
520   1   1   35.1462   34.1617   1.87827
521   1   1   31.2283   76.3448   1.45102
522   1   1   43.017   46.299   1.97108
523   1   1   42.9608   46.1704   1.86361
524   1   1   31.9075   70.5996   1.7877
525   1   1   43.1931   53.999   0.91696
526   1   1   29.65   26.3705   -1.78353
527   1   1   20.6442   25.3962   -2.49121
528   1   1   31.5119   76.1586   1.51826
529   1   1   41.9116   59.4502   1.44216
530   1   1   43.3905   46.4581   2.02189
531   1   1   41.5368   40.0616   2.30002
532   1   1   35.3477   34.1255   1.90973
533   1   1   32.0076   71.0847   1.78378
534   1   1   43.3894   45.8933   1.57582
535   1   1   31.7731   75.9684   1.59359
536   1   1   43.4708   53.8167   0.839108
537   1   1   43.7365   46.6337   2.17108
538   1   1   29.9244   25.9281   -1.88693
539   1   1   20.4966   25.1242   -2.53359
540   1   1   32.1595   71.7599   1.80291
541   1   1   32.1083   71.4676   1.80205
542   1   1   41.9861   59.7491   1.40652
543   1   1   41.8517   39.8634   2.25153
544   1   1   35.7366   34.1265   1.99479
545   1   1   32.1968   72.1497   1.81398
546   1   1   44.0299   46.9102   2.34975
547   1   1   43.5485   45.7233   1.42043
548   1   1   32.063   75.8192   1.63043
549   1   1   32.2677   72.4384   1.83964
550   1   1   43.751   53.6935   0.790468
551   1   1   30.0589   25.621   -1.98748
552   1   1   20.3572   24.8209   -2.63939
553   1   1   32.4056   73.0734   1.85717
554   1   1   32.302   72.7813   1.86137
555   1   1   42.0709   60.1261   1.40603
556   1   1   44.4044   47.1226   2.4267
557   1   1   42.0842   39.7267   2.23161
558   1   1   36.0337   34.5613   2.0696
559   1   1   36.0046   33.9318   2.01916
560   1   1   32.3932   73.4129   1.88653
561   1   1   43.8042   45.4903   1.20595
562   1   1   36.0973   33.6739   2.00874
563   1   1   32.3149   75.6662   1.69214
564   1   1   32.4382   73.7641   1.87847
565   1   1   44.113   53.498   0.743224
566   1   1   36.3777   33.3942   2.01861
567   1   1   30.2071   25.3148   -2.04707
568   1   1   20.1881   24.5427   -2.67168
569   1   1   32.4748   74.0585   1.85904
570   1   1   42.1493   60.4157   1.3886
571   1   1   44.7879   47.2778   2.56953
572   1   1   42.4079   39.5616   2.1998
573   1   1   36.1814   34.8531   2.14388
574   1   1   36.5646   33.1143   2.05522
575   1   1   32.5193   74.7368   1.82272
576   1   1   32.5064   74.4189   1.86742
577   1   1   44.071   45.2597   0.983758
578   1   1   36.8002   32.8763   2.03992
579   1   1   32.6396   75.4934   1.72607
580   1   1   32.5907   75.0804   1.79673
581   1   1   44.3317   53.4172   0.699154
582   1   1   30.3966   24.9464   -2.17838
583   1   1   20.0433   24.2209   -2.76997
584   1   1   42.2314   60.7452   1.42478
585   1   1   45.1694   47.4845   2.7088
586   1   1   42.6488   39.4155   2.13356
587   1   1   36.3966   35.1154   2.18996
588   1   1   36.9961   32.6149   2.08927
589   1   1   44.2501   45.133   0.888128
590   1   1   32.9886   75.6631   1.78391
591   1   1   44.6872   53.2234   0.693262
592   1   1   30.5199   24.755   -2.23961
593   1   1   19.887   23.9706   -2.80449
594   1   1   42.3379   61.0894   1.36654
595   1   1   45.493   47.5977   2.80623
596   1   1   42.9637   39.2303   2.12574
597   1   1   36.5671   35.4436   2.2327
598   1   1   37.2014   32.3742   2.07586
599   1   1   44.4852   44.947   0.728787
600   1   1   33.2025   75.7604   1.78163
601   1   1   44.9635   53.1262   0.615251
602   1   1   30.6456   24.3967   -2.28848
603   1   1   19.7258   23.6294   -2.82561
604   1   1   42.4456   61.4358   1.37072
605   1   1   45.7773   47.7616   2.88396
606   1   1   43.2585   39.0462   2.06639
607   1   1   36.7372   35.6732   2.29983
608   1   1   37.4113   32.1055   2.11473
609   1   1   44.6897   44.7088   0.56614
610   1   1   33.4998   75.9345   1.79078
611   1   1   45.248   52.9855   0.615697
612   1   1   30.8122   24.1135   -2.38942
613   1   1   19.6303   23.3112   -2.93328
614   1   1   42.5524   61.7495   1.34948
615   1   1   46.0706   47.8602   2.90732
616   1   1   43.5442   38.8673   2.0518
617   1   1   36.9095   36.0355   2.35605
618   1   1   37.6524   31.807   2.09891
619   1   1   44.9412   44.5441   0.414197
620   1   1   33.8759   76.1406   1.81358
621   1   1   45.5958   52.8244   0.571143
622   1   1   30.9421   23.8486   -2.44485
623   1   1   19.4971   22.9617   -2.95749
624   1   1   42.6213   61.9899   1.36233
625   1   1   46.3932   47.9521   2.95114
626   1   1   43.8249   38.7466   2.04385
627   1   1   37.0661   36.2533   2.4674
628   1   1   37.8369   31.57   2.10003
629   1   1   33.0695   85.6023   -2.42191
630   1   1   45.1459   44.395   0.305753
631   1   1   33.6236   85.5821   -2.24456
632   1   1   33.8816   85.4797   -2.11242
633   1   1   34.1744   85.5125   -1.94675
634   1   1   34.4773   85.4687   -1.82803
635   1   1   34.8146   85.3821   -1.6662
636   1   1   34.9912   85.3634   -1.58484
637   1   1   35.3824   85.3052   -1.41058
638   1   1   34.0839   76.2205   1.81956
639   1   1   45.8434   52.7078   0.530525
640   1   1   31.0882   23.5749   -2.51697
641   1   1   19.3234   22.4645   -3.00145
642   1   1   35.6937   85.2115   -1.28767
643   1   1   42.778   62.3221   1.32611
644   1   1   46.7484   48.08   2.98004
645   1   1   44.1123   38.5391   2.03833
646   1   1   37.2387   36.5235   2.5078
647   1   1   38.0316   31.297   2.12046
648   1   1   45.3975   44.2039   0.135547
649   1   1   35.9939   85.1691   -1.15067
650   1   1   36.2685   85.1313   -1.002
651   1   1   34.3992   76.4454   1.80741
652   1   1   46.1075   52.569   0.500055
653   1   1   31.2431   23.2988   -2.63861
654   1   1   19.2335   22.1007   -3.04347
655   1   1   36.5641   85.0803   -0.883902
656   1   1   42.6079   62.7009   1.39086
657   1   1   43.2347   62.5415   1.19439
658   1   1   47.0161   48.1923   3.04306
659   1   1   44.3663   38.3677   2.03396
660   1   1   37.3767   36.7466   2.58669
661   1   1   38.2609   31.0425   2.1005
662   1   1   36.8324   85.0078   -0.777057
663   1   1   45.6483   44.013   -0.00674311
664   1   1   37.1705   84.9925   -0.599887
665   1   1   37.4583   84.9339   -0.490929
666   1   1   34.725   76.5903   1.80525
667   1   1   43.5446   62.7048   1.07049
668   1   1   46.446   52.4465   0.468569
669   1   1   31.3991   22.9824   -2.70607
670   1   1   19.0705   21.7178   -3.0488
671   1   1   37.7341   84.8929   -0.344218
672   1   1   34.9958   76.7732   1.7852
673   1   1   42.5269   63.1093   1.50866
674   1   1   47.3211   48.2954   3.06921
675   1   1   44.6869   38.1967   2.02228
676   1   1   37.605   37.0898   2.66043
677   1   1   38.4542   30.7829   2.06187
678   1   1   38.0579   84.8342   -0.222184
679   1   1   35.292   76.9489   1.74339
680   1   1   43.9487   62.8365   0.947655
681   1   1   45.8678   43.8477   -0.167886
682   1   1   42.3495   63.4373   1.59153
683   1   1   46.7793   52.2976   0.425093
684   1   1   31.5894   22.6753   -2.81165
685   1   1   18.953   21.2792   -3.05248
686   1   1   38.4404   84.7935   -0.0363672
687   1   1   35.5053   77.1157   1.72774
688   1   1   47.6564   48.4214   3.10942
689   1   1   44.9321   38.0028   2.02503
690   1   1   37.799   37.3007   2.77091
691   1   1   38.6633   30.5352   2.07209
692   1   1   35.7615   77.278   1.70913
693   1   1   42.1875   63.8128   1.6902
694   1   1   44.2913   62.9409   0.857765
695   1   1   46.0976   43.6578   -0.301891
696   1   1   38.2436   79.3681   1.47178
697   1   1   37.9657   79.1128   1.51727
698   1   1   37.7434   78.9137   1.50444
699   1   1   37.4858   78.6705   1.55808
700   1   1   37.2865   78.5449   1.53377
701   1   1   37.047   78.3486   1.58411
702   1   1   36.808   78.1847   1.60607
703   1   1   36.6031   77.9875   1.59373
704   1   1   36.4236   77.8369   1.64001
705   1   1   36.252   77.7108   1.69331
706   1   1   35.9777   77.4779   1.7071
707   1   1   47.0311   52.1986   0.387199
708   1   1   31.6886   22.472   -2.88229