bb333nuc1bl166bn3d30tot500V2

499 atoms
498 bonds
498 angles

1 atom types
1 bond types
1 angle types

-1000 1000 xlo xhi
-1000 1000 ylo yhi
-1000 1000 zlo zhi

Masses

1 1

Atoms

1	1	1	0.0	0.0	0.0	0	0	0
2	1	1	0.0	0.0	1.0	0	0	0
3	1	1	0.0	-0.49999999999999994	1.8660254037844388	0	0	0
4	1	1	0.0	0.0	2.7320508075688776	0	0	0
5	1	1	0.0	-0.49999999999999994	3.5980762113533165	0	0	0
6	1	1	0.0	0.0	4.464101615137755	0	0	0
7	1	1	0.0	-0.49999999999999994	5.330127018922194	0	0	0
8	1	1	0.0	0.0	6.196152422706632	0	0	0
9	1	1	0.0	-0.49999999999999994	7.06217782649107	0	0	0
10	1	1	0.0	0.0	7.928203230275509	0	0	0
11	1	1	0.0	-0.49999999999999994	8.794228634059948	0	0	0
12	1	1	0.0	0.0	9.660254037844387	0	0	0
13	1	1	0.0	-0.49999999999999994	10.526279441628827	0	0	0
14	1	1	0.0	0.0	11.392304845413266	0	0	0
15	1	1	0.0	-0.49999999999999994	12.258330249197705	0	0	0
16	1	1	0.0	0.0	13.124355652982144	0	0	0
17	1	1	0.0	-0.49999999999999994	13.990381056766584	0	0	0
18	1	1	0.0	0.0	14.856406460551023	0	0	0
19	1	1	0.0	-0.49999999999999994	15.722431864335462	0	0	0
20	1	1	0.0	0.0	16.5884572681199	0	0	0
21	1	1	0.0	-0.49999999999999994	17.454482671904337	0	0	0
22	1	1	0.0	0.0	18.320508075688775	0	0	0
23	1	1	0.0	-0.49999999999999994	19.186533479473212	0	0	0
24	1	1	0.0	0.0	20.05255888325765	0	0	0
25	1	1	0.0	-0.49999999999999994	20.918584287042087	0	0	0
26	1	1	0.0	0.0	21.784609690826525	0	0	0
27	1	1	0.0	-0.49999999999999994	22.650635094610962	0	0	0
28	1	1	0.0	0.0	23.5166604983954	0	0	0
29	1	1	0.0	-0.49999999999999994	24.382685902179837	0	0	0
30	1	1	0.0	0.0	25.248711305964274	0	0	0
31	1	1	0.0	-0.49999999999999994	26.114736709748712	0	0	0
32	1	1	0.0	0.0	26.98076211353315	0	0	0
33	1	1	0.0	-0.49999999999999994	27.846787517317587	0	0	0
34	1	1	0.0	0.0	28.712812921102024	0	0	0
35	1	1	0.0	-0.49999999999999994	29.578838324886462	0	0	0
36	1	1	0.0	0.0	30.4448637286709	0	0	0
37	1	1	0.0	-0.49999999999999994	31.310889132455337	0	0	0
38	1	1	0.0	0.0	32.17691453623978	0	0	0
39	1	1	0.0	-0.49999999999999994	33.04293994002422	0	0	0
40	1	1	0.0	0.0	33.90896534380866	0	0	0
41	1	1	0.0	-0.49999999999999994	34.7749907475931	0	0	0
42	1	1	0.0	0.0	35.64101615137754	0	0	0
43	1	1	0.0	-0.49999999999999994	36.50704155516198	0	0	0
44	1	1	0.0	0.0	37.373066958946424	0	0	0
45	1	1	0.0	-0.49999999999999994	38.239092362730865	0	0	0
46	1	1	0.0	0.0	39.105117766515306	0	0	0
47	1	1	0.0	-0.49999999999999994	39.97114317029975	0	0	0
48	1	1	0.0	0.0	40.83716857408419	0	0	0
49	1	1	0.0	-0.49999999999999994	41.70319397786863	0	0	0
50	1	1	0.0	0.0	42.56921938165307	0	0	0
51	1	1	0.0	-0.49999999999999994	43.43524478543751	0	0	0
52	1	1	0.0	0.0	44.30127018922195	0	0	0
53	1	1	0.0	-0.49999999999999994	45.16729559300639	0	0	0
54	1	1	0.0	0.0	46.033320996790835	0	0	0
55	1	1	0.0	-0.49999999999999994	46.899346400575276	0	0	0
56	1	1	0.0	0.0	47.76537180435972	0	0	0
57	1	1	0.0	-0.49999999999999994	48.63139720814416	0	0	0
58	1	1	0.0	0.0	49.4974226119286	0	0	0
59	1	1	0.0	-0.49999999999999994	50.36344801571304	0	0	0
60	1	1	0.0	0.0	51.22947341949748	0	0	0
61	1	1	0.0	-0.49999999999999994	52.09549882328192	0	0	0
62	1	1	0.0	0.0	52.96152422706636	0	0	0
63	1	1	0.0	-0.49999999999999994	53.827549630850804	0	0	0
64	1	1	0.0	0.0	54.693575034635245	0	0	0
65	1	1	0.0	-0.49999999999999994	55.559600438419686	0	0	0
66	1	1	0.0	0.0	56.42562584220413	0	0	0
67	1	1	0.0	-0.49999999999999994	57.29165124598857	0	0	0
68	1	1	0.0	0.0	58.15767664977301	0	0	0
69	1	1	0.0	-0.49999999999999994	59.02370205355745	0	0	0
70	1	1	0.0	0.0	59.88972745734189	0	0	0
71	1	1	0.0	-0.49999999999999994	60.75575286112633	0	0	0
72	1	1	0.0	0.0	61.62177826491077	0	0	0
73	1	1	0.0	-0.49999999999999994	62.487803668695214	0	0	0
74	1	1	0.0	0.0	63.353829072479655	0	0	0
75	1	1	0.0	-0.49999999999999994	64.21985447626409	0	0	0
76	1	1	0.0	0.0	65.08587988004852	0	0	0
77	1	1	0.0	-0.49999999999999994	65.95190528383296	0	0	0
78	1	1	0.0	0.0	66.81793068761739	0	0	0
79	1	1	0.0	-0.49999999999999994	67.68395609140183	0	0	0
80	1	1	0.0	0.0	68.54998149518626	0	0	0
81	1	1	0.0	-0.49999999999999994	69.41600689897069	0	0	0
82	1	1	0.0	0.0	70.28203230275513	0	0	0
83	1	1	0.0	-0.49999999999999994	71.14805770653956	0	0	0
84	1	1	0.0	0.0	72.014083110324	0	0	0
85	1	1	0.0	-0.49999999999999994	72.88010851410843	0	0	0
86	1	1	0.0	0.0	73.74613391789286	0	0	0
87	1	1	0.0	-0.49999999999999994	74.6121593216773	0	0	0
88	1	1	0.0	0.0	75.47818472546173	0	0	0
89	1	1	0.0	-0.49999999999999994	76.34421012924616	0	0	0
90	1	1	0.0	0.0	77.2102355330306	0	0	0
91	1	1	0.0	-0.49999999999999994	78.07626093681503	0	0	0
92	1	1	0.0	0.0	78.94228634059947	0	0	0
93	1	1	0.0	-0.49999999999999994	79.8083117443839	0	0	0
94	1	1	0.0	0.0	80.67433714816833	0	0	0
95	1	1	0.0	-0.49999999999999994	81.54036255195277	0	0	0
96	1	1	0.0	0.0	82.4063879557372	0	0	0
97	1	1	0.0	-0.49999999999999994	83.27241335952164	0	0	0
98	1	1	0.0	0.0	84.13843876330607	0	0	0
99	1	1	0.0	-0.49999999999999994	85.0044641670905	0	0	0
100	1	1	0.0	0.0	85.87048957087494	0	0	0
101	1	1	0.0	-0.49999999999999994	86.73651497465937	0	0	0
102	1	1	0.0	0.0	87.6025403784438	0	0	0
103	1	1	0.0	-0.49999999999999994	88.46856578222824	0	0	0
104	1	1	0.0	0.0	89.33459118601267	0	0	0
105	1	1	0.0	-0.49999999999999994	90.20061658979711	0	0	0
106	1	1	0.0	0.0	91.06664199358154	0	0	0
107	1	1	0.0	-0.49999999999999994	91.93266739736598	0	0	0
108	1	1	0.0	0.0	92.79869280115041	0	0	0
109	1	1	0.0	-0.49999999999999994	93.66471820493484	0	0	0
110	1	1	0.0	0.0	94.53074360871928	0	0	0
111	1	1	0.0	-0.49999999999999994	95.39676901250371	0	0	0
112	1	1	0.0	0.0	96.26279441628814	0	0	0
113	1	1	0.0	-0.49999999999999994	97.12881982007258	0	0	0
114	1	1	0.0	0.0	97.99484522385701	0	0	0
115	1	1	0.0	-0.49999999999999994	98.86087062764145	0	0	0
116	1	1	0.0	0.0	99.72689603142588	0	0	0
117	1	1	0.0	-0.49999999999999994	100.59292143521031	0	0	0
118	1	1	0.0	0.0	101.45894683899475	0	0	0
119	1	1	0.0	-0.49999999999999994	102.32497224277918	0	0	0
120	1	1	0.0	0.0	103.19099764656362	0	0	0
121	1	1	0.0	-0.49999999999999994	104.05702305034805	0	0	0
122	1	1	0.0	0.0	104.92304845413248	0	0	0
123	1	1	0.0	-0.49999999999999994	105.78907385791692	0	0	0
124	1	1	0.0	0.0	106.65509926170135	0	0	0
125	1	1	0.0	-0.49999999999999994	107.52112466548579	0	0	0
126	1	1	0.0	0.0	108.38715006927022	0	0	0
127	1	1	0.0	-0.49999999999999994	109.25317547305465	0	0	0
128	1	1	0.0	0.0	110.11920087683909	0	0	0
129	1	1	0.0	-0.49999999999999994	110.98522628062352	0	0	0
130	1	1	0.0	0.0	111.85125168440796	0	0	0
131	1	1	0.0	-0.49999999999999994	112.71727708819239	0	0	0
132	1	1	0.0	0.0	113.58330249197682	0	0	0
133	1	1	0.0	-0.49999999999999994	114.44932789576126	0	0	0
134	1	1	0.0	0.0	115.31535329954569	0	0	0
135	1	1	0.0	-0.49999999999999994	116.18137870333013	0	0	0
136	1	1	0.0	0.0	117.04740410711456	0	0	0
137	1	1	0.0	-0.49999999999999994	117.913429510899	0	0	0
138	1	1	0.0	0.0	118.77945491468343	0	0	0
139	1	1	0.0	-0.49999999999999994	119.64548031846786	0	0	0
140	1	1	0.0	0.0	120.5115057222523	0	0	0
141	1	1	0.0	-0.49999999999999994	121.37753112603673	0	0	0
142	1	1	0.0	0.0	122.24355652982116	0	0	0
143	1	1	0.0	-0.49999999999999994	123.1095819336056	0	0	0
144	1	1	0.0	0.0	123.97560733739003	0	0	0
145	1	1	0.0	-0.49999999999999994	124.84163274117446	0	0	0
146	1	1	0.0	0.0	125.7076581449589	0	0	0
147	1	1	0.0	-0.49999999999999994	126.57368354874333	0	0	0
148	1	1	0.0	0.0	127.43970895252777	0	0	0
149	1	1	0.0	-0.49999999999999994	128.3057343563122	0	0	0
150	1	1	0.0	0.0	129.17175976009665	0	0	0
151	1	1	0.0	-0.49999999999999994	130.0377851638811	0	0	0
152	1	1	0.0	0.0	130.90381056766554	0	0	0
153	1	1	0.0	-0.49999999999999994	131.76983597145	0	0	0
154	1	1	0.0	0.0	132.63586137523444	0	0	0
155	1	1	0.0	-0.49999999999999994	133.5018867790189	0	0	0
156	1	1	0.0	0.0	134.36791218280334	0	0	0
157	1	1	0.0	-0.49999999999999994	135.23393758658779	0	0	0
158	1	1	0.0	0.0	136.09996299037223	0	0	0
159	1	1	0.0	-0.49999999999999994	136.96598839415668	0	0	0
160	1	1	0.0	0.0	137.83201379794113	0	0	0
161	1	1	0.0	-0.49999999999999994	138.69803920172558	0	0	0
162	1	1	0.0	0.0	139.56406460551003	0	0	0
163	1	1	0.0	-0.49999999999999994	140.43009000929447	0	0	0
164	1	1	0.0	0.0	141.29611541307892	0	0	0
165	1	1	0.0	-0.49999999999999994	142.16214081686337	0	0	0
166	1	1	0.0	0.0	143.02816622064782	0	0	0
167	1	1	0.0	-0.49999999999999994	143.89419162443227	0	0	0
168	1	1	0.8241406484811434	-0.5195783351313941	144.4602383365635	0	0	0
169	1	1	1.64828129696228	-0.8195570267846011	144.9406600014321	0	0	0
170	1	1	2.4724219454434166	-0.5534890063065792	145.4406600014321	0	0	0
171	1	1	3.2965625939245533	-0.8534676979597862	145.9210816663007	0	0	0
172	1	1	4.12070324240569	-0.5873996774817642	146.4210816663007	0	0	0
173	1	1	4.944843890886826	-0.8873783691349713	146.9015033311693	0	0	0
174	1	1	5.768984539367963	-0.6213103486569493	147.4015033311693	0	0	0
175	1	1	6.5931251878491	-0.9212890403101563	147.8819249960379	0	0	0
176	1	1	7.4172658363302375	-0.6552210198321344	148.3819249960379	0	0	0
177	1	1	8.241406484811375	-0.9551997114853414	148.8623466609065	0	0	0
178	1	1	9.065547133292512	-0.6891316910073195	149.3623466609065	0	0	0
179	1	1	9.889687781773649	-0.9891103826605265	149.8427683257751	0	0	0
180	1	1	10.713828430254786	-0.7230423621825046	150.3427683257751	0	0	0
181	1	1	11.537969078735923	-1.0230210538357116	150.8231899906437	0	0	0
182	1	1	12.36210972721706	-0.7569530333576897	151.3231899906437	0	0	0
183	1	1	13.186250375698197	-1.0569317250108967	151.8036116555123	0	0	0
184	1	1	14.010391024179334	-0.7908637045328748	152.3036116555123	0	0	0
185	1	1	14.834531672660471	-1.0908423961860818	152.7840333203809	0	0	0
186	1	1	15.658672321141609	-0.8247743757080599	153.2840333203809	0	0	0
187	1	1	16.482812969622746	-1.124753067361267	153.7644549852495	0	0	0
188	1	1	17.306953618103883	-0.858685046883245	154.2644549852495	0	0	0
189	1	1	18.13109426658502	-1.158663738536452	154.7448766501181	0	0	0
190	1	1	18.955234915066157	-0.8925957180584301	155.2448766501181	0	0	0
191	1	1	19.779375563547294	-1.192574409711637	155.7252983149867	0	0	0
192	1	1	20.60351621202843	-0.9265063892336152	156.2252983149867	0	0	0
193	1	1	21.42765686050957	-1.2264850808868222	156.7057199798553	0	0	0
194	1	1	22.251797508990705	-0.9604170604088003	157.2057199798553	0	0	0
195	1	1	23.075938157471843	-1.2603957520620073	157.6861416447239	0	0	0
196	1	1	23.90007880595298	-0.9943277315839854	158.1861416447239	0	0	0
197	1	1	24.724219454434117	-1.2943064232371924	158.6665633095925	0	0	0
198	1	1	25.548360102915254	-1.0282384027591704	159.1665633095925	0	0	0
199	1	1	26.37250075139639	-1.3282170944123775	159.6469849744611	0	0	0
200	1	1	27.196641399877528	-1.0621490739343555	160.1469849744611	0	0	0
201	1	1	28.020782048358665	-1.3621277655875625	160.6274066393297	0	0	0
202	1	1	28.844922696839802	-1.0960597451095406	161.1274066393297	0	0	0
203	1	1	29.66906334532094	-1.3960384367627476	161.6078283041983	0	0	0
204	1	1	30.493203993802076	-1.1299704162847257	162.1078283041983	0	0	0
205	1	1	31.317344642283214	-1.4299491079379327	162.5882499690669	0	0	0
206	1	1	32.14148529076435	-1.1638810874599108	163.0882499690669	0	0	0
207	1	1	32.965625939245484	-1.4638597791131178	163.5686716339355	0	0	0
208	1	1	33.78976658772662	-1.197791758635096	164.0686716339355	0	0	0
209	1	1	34.61390723620775	-1.497770450288303	164.5490932988041	0	0	0
210	1	1	35.438047884688885	-1.231702429810281	165.0490932988041	0	0	0
211	1	1	36.26218853317002	-1.531681121463488	165.5295149636727	0	0	0
212	1	1	37.08632918165115	-1.265613100985466	166.0295149636727	0	0	0
213	1	1	37.910469830132286	-1.565591792638673	166.5099366285413	0	0	0
214	1	1	38.73461047861342	-1.2995237721606512	167.0099366285413	0	0	0
215	1	1	39.55875112709455	-1.5995024638138582	167.4903582934099	0	0	0
216	1	1	40.382891775575686	-1.3334344433358363	167.9903582934099	0	0	0
217	1	1	41.20703242405682	-1.6334131349890433	168.4707799582785	0	0	0
218	1	1	42.03117307253795	-1.3673451145110214	168.9707799582785	0	0	0
219	1	1	42.85531372101909	-1.6673238061642284	169.4512016231471	0	0	0
220	1	1	43.67945436950022	-1.4012557856862065	169.9512016231471	0	0	0
221	1	1	44.503595017981354	-1.7012344773394135	170.43162328801571	0	0	0
222	1	1	45.32773566646249	-1.4351664568613915	170.93162328801571	0	0	0
223	1	1	46.15187631494362	-1.7351451485145986	171.41204495288432	0	0	0
224	1	1	46.976016963424755	-1.4690771280365766	171.91204495288432	0	0	0
225	1	1	47.80015761190589	-1.7690558196897836	172.39246661775292	0	0	0
226	1	1	48.62429826038702	-1.5029877992117617	172.89246661775292	0	0	0
227	1	1	49.448438908868155	-1.8029664908649687	173.37288828262152	0	0	0
228	1	1	50.27257955734929	-1.5368984703869468	173.87288828262152	0	0	0
229	1	1	51.09672020583042	-1.8368771620401538	174.35330994749012	0	0	0
230	1	1	51.920860854311556	-1.570809141562132	174.85330994749012	0	0	0
231	1	1	52.74500150279269	-1.870787833215339	175.33373161235872	0	0	0
232	1	1	53.56914215127382	-1.604719812737317	175.83373161235872	0	0	0
233	1	1	54.39328279975496	-1.904698504390524	176.31415327722732	0	0	0
234	1	1	55.21742344823609	-1.638630483912502	176.81415327722732	0	0	0
235	1	1	56.041564096717224	-1.938609175565709	177.29457494209592	0	0	0
236	1	1	56.86570474519836	-1.6725411550876872	177.79457494209592	0	0	0
237	1	1	57.68984539367949	-1.9725198467408942	178.27499660696452	0	0	0
238	1	1	58.513986042160624	-1.7064518262628723	178.77499660696452	0	0	0
239	1	1	59.33812669064176	-2.0064305179160793	179.25541827183312	0	0	0
240	1	1	60.16226733912289	-1.7403624974380574	179.75541827183312	0	0	0
241	1	1	60.986407987604025	-2.0403411890912646	180.23583993670172	0	0	0
242	1	1	61.81054863608516	-1.7742731686132427	180.73583993670172	0	0	0
243	1	1	62.63468928456629	-2.07425186026645	181.21626160157032	0	0	0
244	1	1	63.458829933047426	-1.808183839788428	181.71626160157032	0	0	0
245	1	1	64.28297058152856	-2.1081625314416352	182.19668326643892	0	0	0
246	1	1	65.10711123000969	-1.8420945109636133	182.69668326643892	0	0	0
247	1	1	65.93125187849083	-2.1420732026168205	183.17710493130753	0	0	0
248	1	1	66.75539252697196	-1.8760051821387986	183.67710493130753	0	0	0
249	1	1	67.5795331754531	-2.175983873792006	184.15752659617613	0	0	0
250	1	1	68.40367382393423	-1.909915853313984	184.65752659617613	0	0	0
251	1	1	69.22781447241536	-2.209894544967191	185.13794826104473	0	0	0
252	1	1	70.0519551208965	-1.9438265244891693	185.63794826104473	0	0	0
253	1	1	70.87609576937763	-2.2438052161423765	186.11836992591333	0	0	0
254	1	1	71.70023641785876	-1.9777371956643546	186.61836992591333	0	0	0
255	1	1	72.5243770663399	-2.277715887317562	187.09879159078193	0	0	0
256	1	1	73.34851771482103	-2.0116478668395397	187.59879159078193	0	0	0
257	1	1	74.17265836330216	-2.3116265584927467	188.07921325565053	0	0	0
258	1	1	74.9967990117833	-2.0455585380147245	188.57921325565053	0	0	0
259	1	1	75.82093966026443	-2.3455372296679315	189.05963492051913	0	0	0
260	1	1	76.64508030874556	-2.0794692091899094	189.55963492051913	0	0	0
261	1	1	77.4692209572267	-2.3794479008431164	190.04005658538773	0	0	0
262	1	1	78.29336160570783	-2.1133798803650943	190.54005658538773	0	0	0
263	1	1	79.11750225418896	-2.4133585720183013	191.02047825025633	0	0	0
264	1	1	79.9416429026701	-2.147290551540279	191.52047825025633	0	0	0
265	1	1	80.76578355115123	-2.447269243193486	192.00089991512493	0	0	0
266	1	1	81.58992419963236	-2.181201222715464	192.50089991512493	0	0	0
267	1	1	82.4140648481135	-2.481179914368671	192.98132157999353	0	0	0
268	1	1	83.23820549659463	-2.215111893890649	193.48132157999353	0	0	0
269	1	1	84.06234614507576	-2.515090585543856	193.96174324486213	0	0	0
270	1	1	84.8864867935569	-2.2490225650658338	194.46174324486213	0	0	0
271	1	1	85.71062744203803	-2.5490012567190408	194.94216490973074	0	0	0
272	1	1	86.53476809051917	-2.2829332362410186	195.44216490973074	0	0	0
273	1	1	87.3589087390003	-2.5829119278942256	195.92258657459934	0	0	0
274	1	1	88.18304938748143	-2.3168439074162035	196.42258657459934	0	0	0
275	1	1	89.00719003596257	-2.6168225990694105	196.90300823946794	0	0	0
276	1	1	89.8313306844437	-2.3507545785913884	197.40300823946794	0	0	0
277	1	1	90.65547133292483	-2.6507332702445954	197.88342990433654	0	0	0
278	1	1	91.47961198140597	-2.3846652497665732	198.38342990433654	0	0	0
279	1	1	92.3037526298871	-2.6846439414197802	198.86385156920514	0	0	0
280	1	1	93.12789327836823	-2.418575920941758	199.36385156920514	0	0	0
281	1	1	93.95203392684937	-2.718554612594965	199.84427323407374	0	0	0
282	1	1	94.7761745753305	-2.452486592116943	200.34427323407374	0	0	0
283	1	1	95.60031522381163	-2.75246528377015	200.82469489894234	0	0	0
284	1	1	96.42445587229277	-2.486397263292128	201.32469489894234	0	0	0
285	1	1	97.2485965207739	-2.786375954945335	201.80511656381094	0	0	0
286	1	1	98.07273716925503	-2.5203079344673127	202.30511656381094	0	0	0
287	1	1	98.89687781773617	-2.8202866261205197	202.78553822867954	0	0	0
288	1	1	99.7210184662173	-2.5542186056424976	203.28553822867954	0	0	0
289	1	1	100.54515911469844	-2.8541972972957046	203.76595989354814	0	0	0
290	1	1	101.36929976317957	-2.5881292768176825	204.26595989354814	0	0	0
291	1	1	102.1934404116607	-2.8881079684708895	204.74638155841674	0	0	0
292	1	1	103.01758106014184	-2.6220399479928673	205.24638155841674	0	0	0
293	1	1	103.84172170862297	-2.9220186396460743	205.72680322328534	0	0	0
294	1	1	104.6658623571041	-2.655950619168052	206.22680322328534	0	0	0
295	1	1	105.49000300558524	-2.955929310821259	206.70722488815395	0	0	0
296	1	1	106.31414365406637	-2.689861290343237	207.20722488815395	0	0	0
297	1	1	107.1382843025475	-2.989839981996444	207.68764655302255	0	0	0
298	1	1	107.96242495102864	-2.723771961518422	208.18764655302255	0	0	0
299	1	1	108.78656559950977	-3.023750653171629	208.66806821789115	0	0	0
300	1	1	109.6107062479909	-2.757682632693607	209.16806821789115	0	0	0
301	1	1	110.43484689647204	-3.057661324346814	209.64848988275975	0	0	0
302	1	1	111.25898754495317	-2.7915933038687917	210.14848988275975	0	0	0
303	1	1	112.0831281934343	-3.0915719955219987	210.62891154762835	0	0	0
304	1	1	112.90726884191544	-2.8255039750439765	211.12891154762835	0	0	0
305	1	1	113.73140949039657	-3.1254826666971836	211.60933321249695	0	0	0
306	1	1	114.5555501388777	-2.8594146462191614	212.10933321249695	0	0	0
307	1	1	115.37969078735884	-3.1593933378723684	212.58975487736555	0	0	0
308	1	1	116.20383143583997	-2.8933253173943463	213.08975487736555	0	0	0
309	1	1	117.0279720843211	-3.1933040090475533	213.57017654223415	0	0	0
310	1	1	117.85211273280224	-2.927235988569531	214.07017654223415	0	0	0
311	1	1	118.67625338128337	-3.227214680222738	214.55059820710275	0	0	0
312	1	1	119.50039402976451	-2.961146659744716	215.05059820710275	0	0	0
313	1	1	120.32453467824564	-3.261125351397923	215.53101987197135	0	0	0
314	1	1	121.14867532672677	-2.995057330919901	216.03101987197135	0	0	0
315	1	1	121.97281597520791	-3.295036022573108	216.51144153683995	0	0	0
316	1	1	122.79695662368904	-3.0289680020950858	217.01144153683995	0	0	0
317	1	1	123.62109727217018	-3.3289466937482928	217.49186320170855	0	0	0
318	1	1	124.44523792065131	-3.0628786732702706	217.99186320170855	0	0	0
319	1	1	125.26937856913244	-3.3628573649234776	218.47228486657716	0	0	0
320	1	1	126.09351921761358	-3.0967893444454555	218.97228486657716	0	0	0
321	1	1	126.91765986609471	-3.3967680360986625	219.45270653144576	0	0	0
322	1	1	127.74180051457584	-3.1307000156206404	219.95270653144576	0	0	0
323	1	1	128.56594116305698	-3.4306787072738474	220.43312819631436	0	0	0
324	1	1	129.39008181153812	-3.1646106867958252	220.93312819631436	0	0	0
325	1	1	130.21422246001927	-3.4645893784490323	221.41354986118296	0	0	0
326	1	1	131.03836310850042	-3.19852135797101	221.91354986118296	0	0	0
327	1	1	131.86250375698157	-3.498500049624217	222.39397152605156	0	0	0
328	1	1	132.68664440546272	-3.232432029146195	222.89397152605156	0	0	0
329	1	1	133.51078505394386	-3.532410720799402	223.37439319092016	0	0	0
330	1	1	134.334925702425	-3.26634270032138	223.87439319092016	0	0	0
331	1	1	135.15906635090616	-3.566321391974587	224.35481485578876	0	0	0
332	1	1	135.9832069993873	-3.3002533714965647	224.85481485578876	0	0	0
333	1	1	136.80734764786845	-3.6002320631497717	225.33523652065736	0	0	0
334	1	1	-0.8241406484811432	-0.9804216648686057	144.1941703160855	0	0	0
335	1	1	-1.6482812969622795	-1.5464683769998349	144.2137486512169	0	0	0
336	1	1	-2.4724219454434158	-1.812536397477852	144.7137486512169	0	0	0
337	1	1	-3.296562593924552	-2.3785831096090813	144.7333269863483	0	0	0
338	1	1	-4.120703242405688	-2.644651130087098	145.2333269863483	0	0	0
339	1	1	-4.944843890886824	-3.210697842218327	145.2529053214797	0	0	0
340	1	1	-5.768984539367961	-3.476765862696344	145.7529053214797	0	0	0
341	1	1	-6.593125187849097	-4.042812574827574	145.7724836566111	0	0	0
342	1	1	-7.417265836330233	-4.308880595305591	146.2724836566111	0	0	0
343	1	1	-8.24140648481137	-4.8749273074368205	146.2920619917425	0	0	0
344	1	1	-9.065547133292505	-5.140995327914838	146.7920619917425	0	0	0
345	1	1	-9.889687781773642	-5.707042040046067	146.81164032687388	0	0	0
346	1	1	-10.713828430254779	-5.9731100605240846	147.31164032687388	0	0	0
347	1	1	-11.537969078735916	-6.539156772655314	147.33121866200528	0	0	0
348	1	1	-12.362109727217053	-6.805224793133331	147.83121866200528	0	0	0
349	1	1	-13.18625037569819	-7.371271505264561	147.85079699713668	0	0	0
350	1	1	-14.010391024179327	-7.637339525742578	148.35079699713668	0	0	0
351	1	1	-14.834531672660464	-8.203386237873808	148.37037533226808	0	0	0
352	1	1	-15.658672321141601	-8.469454258351824	148.87037533226808	0	0	0
353	1	1	-16.48281296962274	-9.035500970483053	148.88995366739948	0	0	0
354	1	1	-17.306953618103876	-9.30156899096107	149.38995366739948	0	0	0
355	1	1	-18.131094266585013	-9.867615703092298	149.40953200253088	0	0	0
356	1	1	-18.95523491506615	-10.133683723570314	149.90953200253088	0	0	0
357	1	1	-19.779375563547287	-10.699730435701543	149.92911033766228	0	0	0
358	1	1	-20.603516212028424	-10.96579845617956	150.42911033766228	0	0	0
359	1	1	-21.42765686050956	-11.531845168310788	150.44868867279368	0	0	0
360	1	1	-22.2517975089907	-11.797913188788804	150.94868867279368	0	0	0
361	1	1	-23.075938157471835	-12.363959900920033	150.96826700792508	0	0	0
362	1	1	-23.900078805952973	-12.63002792139805	151.46826700792508	0	0	0
363	1	1	-24.72421945443411	-13.196074633529278	151.48784534305648	0	0	0
364	1	1	-25.548360102915247	-13.462142654007295	151.98784534305648	0	0	0
365	1	1	-26.372500751396384	-14.028189366138523	152.00742367818788	0	0	0
366	1	1	-27.19664139987752	-14.29425738661654	152.50742367818788	0	0	0
367	1	1	-28.020782048358658	-14.860304098747768	152.52700201331928	0	0	0
368	1	1	-28.844922696839795	-15.126372119225785	153.02700201331928	0	0	0
369	1	1	-29.669063345320932	-15.692418831357013	153.04658034845068	0	0	0
370	1	1	-30.49320399380207	-15.95848685183503	153.54658034845068	0	0	0
371	1	1	-31.317344642283206	-16.52453356396626	153.56615868358207	0	0	0
372	1	1	-32.141485290764344	-16.790601584444275	154.06615868358207	0	0	0
373	1	1	-32.96562593924548	-17.356648296575504	154.08573701871347	0	0	0
374	1	1	-33.78976658772661	-17.62271631705352	154.58573701871347	0	0	0
375	1	1	-34.613907236207744	-18.18876302918475	154.60531535384487	0	0	0
376	1	1	-35.43804788468888	-18.454831049662765	155.10531535384487	0	0	0
377	1	1	-36.26218853317001	-19.020877761793994	155.12489368897627	0	0	0
378	1	1	-37.086329181651145	-19.28694578227201	155.62489368897627	0	0	0
379	1	1	-37.91046983013228	-19.85299249440324	155.64447202410767	0	0	0
380	1	1	-38.73461047861341	-20.119060514881255	156.14447202410767	0	0	0
381	1	1	-39.558751127094546	-20.685107227012484	156.16405035923907	0	0	0
382	1	1	-40.38289177557568	-20.9511752474905	156.66405035923907	0	0	0
383	1	1	-41.20703242405681	-21.51722195962173	156.68362869437047	0	0	0
384	1	1	-42.031173072537946	-21.783289980099745	157.18362869437047	0	0	0
385	1	1	-42.85531372101908	-22.349336692230974	157.20320702950187	0	0	0
386	1	1	-43.67945436950021	-22.61540471270899	157.70320702950187	0	0	0
387	1	1	-44.50359501798135	-23.18145142484022	157.72278536463327	0	0	0
388	1	1	-45.32773566646248	-23.447519445318235	158.22278536463327	0	0	0
389	1	1	-46.151876314943614	-24.013566157449464	158.24236369976467	0	0	0
390	1	1	-46.97601696342475	-24.27963417792748	158.74236369976467	0	0	0
391	1	1	-47.80015761190588	-24.84568089005871	158.76194203489607	0	0	0
392	1	1	-48.624298260387015	-25.111748910536726	159.26194203489607	0	0	0
393	1	1	-49.44843890886815	-25.677795622667954	159.28152037002747	0	0	0
394	1	1	-50.27257955734928	-25.94386364314597	159.78152037002747	0	0	0
395	1	1	-51.096720205830415	-26.5099103552772	159.80109870515886	0	0	0
396	1	1	-51.92086085431155	-26.775978375755216	160.30109870515886	0	0	0
397	1	1	-52.74500150279268	-27.342025087886444	160.32067704029026	0	0	0
398	1	1	-53.569142151273816	-27.60809310836446	160.82067704029026	0	0	0
399	1	1	-54.39328279975495	-28.17413982049569	160.84025537542166	0	0	0
400	1	1	-55.21742344823608	-28.440207840973706	161.34025537542166	0	0	0
401	1	1	-56.04156409671722	-29.006254553104935	161.35983371055306	0	0	0
402	1	1	-56.86570474519835	-29.27232257358295	161.85983371055306	0	0	0
403	1	1	-57.689845393679484	-29.83836928571418	161.87941204568446	0	0	0
404	1	1	-58.51398604216062	-30.104437306192196	162.37941204568446	0	0	0
405	1	1	-59.33812669064175	-30.670484018323425	162.39899038081586	0	0	0
406	1	1	-60.162267339122884	-30.93655203880144	162.89899038081586	0	0	0
407	1	1	-60.98640798760402	-31.50259875093267	162.91856871594726	0	0	0
408	1	1	-61.81054863608515	-31.768666771410686	163.41856871594726	0	0	0
409	1	1	-62.634689284566285	-32.33471348354192	163.43814705107866	0	0	0
410	1	1	-63.45882993304742	-32.600781504019935	163.93814705107866	0	0	0
411	1	1	-64.28297058152856	-33.16682821615117	163.95772538621006	0	0	0
412	1	1	-65.10711123000969	-33.43289623662918	164.45772538621006	0	0	0
413	1	1	-65.93125187849083	-33.998942948760416	164.47730372134146	0	0	0
414	1	1	-66.75539252697196	-34.26501096923843	164.97730372134146	0	0	0
415	1	1	-67.5795331754531	-34.831057681369664	164.99688205647286	0	0	0
416	1	1	-68.40367382393423	-35.09712570184768	165.49688205647286	0	0	0
417	1	1	-69.22781447241536	-35.66317241397891	165.51646039160426	0	0	0
418	1	1	-70.0519551208965	-35.92924043445693	166.01646039160426	0	0	0
419	1	1	-70.87609576937763	-36.49528714658816	166.03603872673565	0	0	0
420	1	1	-71.70023641785876	-36.76135516706618	166.53603872673565	0	0	0
421	1	1	-72.5243770663399	-37.32740187919741	166.55561706186705	0	0	0
422	1	1	-73.34851771482103	-37.593469899675426	167.05561706186705	0	0	0
423	1	1	-74.17265836330216	-38.15951661180666	167.07519539699845	0	0	0
424	1	1	-74.9967990117833	-38.425584632284675	167.57519539699845	0	0	0
425	1	1	-75.82093966026443	-38.99163134441591	167.59477373212985	0	0	0
426	1	1	-76.64508030874556	-39.257699364893924	168.09477373212985	0	0	0
427	1	1	-77.4692209572267	-39.823746077025156	168.11435206726125	0	0	0
428	1	1	-78.29336160570783	-40.08981409750317	168.61435206726125	0	0	0
429	1	1	-79.11750225418896	-40.655860809634405	168.63393040239265	0	0	0
430	1	1	-79.9416429026701	-40.92192883011242	169.13393040239265	0	0	0
431	1	1	-80.76578355115123	-41.48797554224365	169.15350873752405	0	0	0
432	1	1	-81.58992419963236	-41.75404356272167	169.65350873752405	0	0	0
433	1	1	-82.4140648481135	-42.3200902748529	169.67308707265545	0	0	0
434	1	1	-83.23820549659463	-42.58615829533092	170.17308707265545	0	0	0
435	1	1	-84.06234614507576	-43.15220500746215	170.19266540778685	0	0	0
436	1	1	-84.8864867935569	-43.41827302794017	170.69266540778685	0	0	0
437	1	1	-85.71062744203803	-43.9843197400714	170.71224374291825	0	0	0
438	1	1	-86.53476809051917	-44.250387760549415	171.21224374291825	0	0	0
439	1	1	-87.3589087390003	-44.81643447268065	171.23182207804965	0	0	0
440	1	1	-88.18304938748143	-45.082502493158664	171.73182207804965	0	0	0
441	1	1	-89.00719003596257	-45.648549205289896	171.75140041318105	0	0	0
442	1	1	-89.8313306844437	-45.91461722576791	172.25140041318105	0	0	0
443	1	1	-90.65547133292483	-46.480663937899145	172.27097874831244	0	0	0
444	1	1	-91.47961198140597	-46.74673195837716	172.77097874831244	0	0	0
445	1	1	-92.3037526298871	-47.31277867050839	172.79055708344384	0	0	0
446	1	1	-93.12789327836823	-47.57884669098641	173.29055708344384	0	0	0
447	1	1	-93.95203392684937	-48.14489340311764	173.31013541857524	0	0	0
448	1	1	-94.7761745753305	-48.41096142359566	173.81013541857524	0	0	0
449	1	1	-95.60031522381163	-48.97700813572689	173.82971375370664	0	0	0
450	1	1	-96.42445587229277	-49.24307615620491	174.32971375370664	0	0	0
451	1	1	-97.2485965207739	-49.80912286833614	174.34929208883804	0	0	0
452	1	1	-98.07273716925503	-50.075190888814156	174.84929208883804	0	0	0
453	1	1	-98.89687781773617	-50.64123760094539	174.86887042396944	0	0	0
454	1	1	-99.7210184662173	-50.907305621423404	175.36887042396944	0	0	0
455	1	1	-100.54515911469844	-51.47335233355464	175.38844875910084	0	0	0
456	1	1	-101.36929976317957	-51.73942035403265	175.88844875910084	0	0	0
457	1	1	-102.1934404116607	-52.305467066163885	175.90802709423224	0	0	0
458	1	1	-103.01758106014184	-52.5715350866419	176.40802709423224	0	0	0
459	1	1	-103.84172170862297	-53.137581798773134	176.42760542936364	0	0	0
460	1	1	-104.6658623571041	-53.40364981925115	176.92760542936364	0	0	0
461	1	1	-105.49000300558524	-53.96969653138238	176.94718376449504	0	0	0
462	1	1	-106.31414365406637	-54.2357645518604	177.44718376449504	0	0	0
463	1	1	-107.1382843025475	-54.80181126399163	177.46676209962644	0	0	0
464	1	1	-107.96242495102864	-55.06787928446965	177.96676209962644	0	0	0
465	1	1	-108.78656559950977	-55.63392599660088	177.98634043475784	0	0	0
466	1	1	-109.6107062479909	-55.899994017078896	178.48634043475784	0	0	0
467	1	1	-110.43484689647204	-56.46604072921013	178.50591876988923	0	0	0
468	1	1	-111.25898754495317	-56.732108749688145	179.00591876988923	0	0	0
469	1	1	-112.0831281934343	-57.29815546181938	179.02549710502063	0	0	0
470	1	1	-112.90726884191544	-57.56422348229739	179.52549710502063	0	0	0
471	1	1	-113.73140949039657	-58.130270194428626	179.54507544015203	0	0	0
472	1	1	-114.5555501388777	-58.39633821490664	180.04507544015203	0	0	0
473	1	1	-115.37969078735884	-58.962384927037874	180.06465377528343	0	0	0