bb400nuc1bl200bn3d30tot600V2

601 atoms
600 bonds
600 angles

1 atom types
1 bond types
1 angle types

-1000 1000 xlo xhi
-1000 1000 ylo yhi
-1000 1000 zlo zhi

Masses

1 1

Atoms

1	1	1	0.0	0.0	0.0	0	0	0
2	1	1	0.0	0.0	1.0	0	0	0
3	1	1	0.0	-0.49999999999999994	1.8660254037844388	0	0	0
4	1	1	0.0	0.0	2.7320508075688776	0	0	0
5	1	1	0.0	-0.49999999999999994	3.5980762113533165	0	0	0
6	1	1	0.0	0.0	4.464101615137755	0	0	0
7	1	1	0.0	-0.49999999999999994	5.330127018922194	0	0	0
8	1	1	0.0	0.0	6.196152422706632	0	0	0
9	1	1	0.0	-0.49999999999999994	7.06217782649107	0	0	0
10	1	1	0.0	0.0	7.928203230275509	0	0	0
11	1	1	0.0	-0.49999999999999994	8.794228634059948	0	0	0
12	1	1	0.0	0.0	9.660254037844387	0	0	0
13	1	1	0.0	-0.49999999999999994	10.526279441628827	0	0	0
14	1	1	0.0	0.0	11.392304845413266	0	0	0
15	1	1	0.0	-0.49999999999999994	12.258330249197705	0	0	0
16	1	1	0.0	0.0	13.124355652982144	0	0	0
17	1	1	0.0	-0.49999999999999994	13.990381056766584	0	0	0
18	1	1	0.0	0.0	14.856406460551023	0	0	0
19	1	1	0.0	-0.49999999999999994	15.722431864335462	0	0	0
20	1	1	0.0	0.0	16.5884572681199	0	0	0
21	1	1	0.0	-0.49999999999999994	17.454482671904337	0	0	0
22	1	1	0.0	0.0	18.320508075688775	0	0	0
23	1	1	0.0	-0.49999999999999994	19.186533479473212	0	0	0
24	1	1	0.0	0.0	20.05255888325765	0	0	0
25	1	1	0.0	-0.49999999999999994	20.918584287042087	0	0	0
26	1	1	0.0	0.0	21.784609690826525	0	0	0
27	1	1	0.0	-0.49999999999999994	22.650635094610962	0	0	0
28	1	1	0.0	0.0	23.5166604983954	0	0	0
29	1	1	0.0	-0.49999999999999994	24.382685902179837	0	0	0
30	1	1	0.0	0.0	25.248711305964274	0	0	0
31	1	1	0.0	-0.49999999999999994	26.114736709748712	0	0	0
32	1	1	0.0	0.0	26.98076211353315	0	0	0
33	1	1	0.0	-0.49999999999999994	27.846787517317587	0	0	0
34	1	1	0.0	0.0	28.712812921102024	0	0	0
35	1	1	0.0	-0.49999999999999994	29.578838324886462	0	0	0
36	1	1	0.0	0.0	30.4448637286709	0	0	0
37	1	1	0.0	-0.49999999999999994	31.310889132455337	0	0	0
38	1	1	0.0	0.0	32.17691453623978	0	0	0
39	1	1	0.0	-0.49999999999999994	33.04293994002422	0	0	0
40	1	1	0.0	0.0	33.90896534380866	0	0	0
41	1	1	0.0	-0.49999999999999994	34.7749907475931	0	0	0
42	1	1	0.0	0.0	35.64101615137754	0	0	0
43	1	1	0.0	-0.49999999999999994	36.50704155516198	0	0	0
44	1	1	0.0	0.0	37.373066958946424	0	0	0
45	1	1	0.0	-0.49999999999999994	38.239092362730865	0	0	0
46	1	1	0.0	0.0	39.105117766515306	0	0	0
47	1	1	0.0	-0.49999999999999994	39.97114317029975	0	0	0
48	1	1	0.0	0.0	40.83716857408419	0	0	0
49	1	1	0.0	-0.49999999999999994	41.70319397786863	0	0	0
50	1	1	0.0	0.0	42.56921938165307	0	0	0
51	1	1	0.0	-0.49999999999999994	43.43524478543751	0	0	0
52	1	1	0.0	0.0	44.30127018922195	0	0	0
53	1	1	0.0	-0.49999999999999994	45.16729559300639	0	0	0
54	1	1	0.0	0.0	46.033320996790835	0	0	0
55	1	1	0.0	-0.49999999999999994	46.899346400575276	0	0	0
56	1	1	0.0	0.0	47.76537180435972	0	0	0
57	1	1	0.0	-0.49999999999999994	48.63139720814416	0	0	0
58	1	1	0.0	0.0	49.4974226119286	0	0	0
59	1	1	0.0	-0.49999999999999994	50.36344801571304	0	0	0
60	1	1	0.0	0.0	51.22947341949748	0	0	0
61	1	1	0.0	-0.49999999999999994	52.09549882328192	0	0	0
62	1	1	0.0	0.0	52.96152422706636	0	0	0
63	1	1	0.0	-0.49999999999999994	53.827549630850804	0	0	0
64	1	1	0.0	0.0	54.693575034635245	0	0	0
65	1	1	0.0	-0.49999999999999994	55.559600438419686	0	0	0
66	1	1	0.0	0.0	56.42562584220413	0	0	0
67	1	1	0.0	-0.49999999999999994	57.29165124598857	0	0	0
68	1	1	0.0	0.0	58.15767664977301	0	0	0
69	1	1	0.0	-0.49999999999999994	59.02370205355745	0	0	0
70	1	1	0.0	0.0	59.88972745734189	0	0	0
71	1	1	0.0	-0.49999999999999994	60.75575286112633	0	0	0
72	1	1	0.0	0.0	61.62177826491077	0	0	0
73	1	1	0.0	-0.49999999999999994	62.487803668695214	0	0	0
74	1	1	0.0	0.0	63.353829072479655	0	0	0
75	1	1	0.0	-0.49999999999999994	64.21985447626409	0	0	0
76	1	1	0.0	0.0	65.08587988004852	0	0	0
77	1	1	0.0	-0.49999999999999994	65.95190528383296	0	0	0
78	1	1	0.0	0.0	66.81793068761739	0	0	0
79	1	1	0.0	-0.49999999999999994	67.68395609140183	0	0	0
80	1	1	0.0	0.0	68.54998149518626	0	0	0
81	1	1	0.0	-0.49999999999999994	69.41600689897069	0	0	0
82	1	1	0.0	0.0	70.28203230275513	0	0	0
83	1	1	0.0	-0.49999999999999994	71.14805770653956	0	0	0
84	1	1	0.0	0.0	72.014083110324	0	0	0
85	1	1	0.0	-0.49999999999999994	72.88010851410843	0	0	0
86	1	1	0.0	0.0	73.74613391789286	0	0	0
87	1	1	0.0	-0.49999999999999994	74.6121593216773	0	0	0
88	1	1	0.0	0.0	75.47818472546173	0	0	0
89	1	1	0.0	-0.49999999999999994	76.34421012924616	0	0	0
90	1	1	0.0	0.0	77.2102355330306	0	0	0
91	1	1	0.0	-0.49999999999999994	78.07626093681503	0	0	0
92	1	1	0.0	0.0	78.94228634059947	0	0	0
93	1	1	0.0	-0.49999999999999994	79.8083117443839	0	0	0
94	1	1	0.0	0.0	80.67433714816833	0	0	0
95	1	1	0.0	-0.49999999999999994	81.54036255195277	0	0	0
96	1	1	0.0	0.0	82.4063879557372	0	0	0
97	1	1	0.0	-0.49999999999999994	83.27241335952164	0	0	0
98	1	1	0.0	0.0	84.13843876330607	0	0	0
99	1	1	0.0	-0.49999999999999994	85.0044641670905	0	0	0
100	1	1	0.0	0.0	85.87048957087494	0	0	0
101	1	1	0.0	-0.49999999999999994	86.73651497465937	0	0	0
102	1	1	0.0	0.0	87.6025403784438	0	0	0
103	1	1	0.0	-0.49999999999999994	88.46856578222824	0	0	0
104	1	1	0.0	0.0	89.33459118601267	0	0	0
105	1	1	0.0	-0.49999999999999994	90.20061658979711	0	0	0
106	1	1	0.0	0.0	91.06664199358154	0	0	0
107	1	1	0.0	-0.49999999999999994	91.93266739736598	0	0	0
108	1	1	0.0	0.0	92.79869280115041	0	0	0
109	1	1	0.0	-0.49999999999999994	93.66471820493484	0	0	0
110	1	1	0.0	0.0	94.53074360871928	0	0	0
111	1	1	0.0	-0.49999999999999994	95.39676901250371	0	0	0
112	1	1	0.0	0.0	96.26279441628814	0	0	0
113	1	1	0.0	-0.49999999999999994	97.12881982007258	0	0	0
114	1	1	0.0	0.0	97.99484522385701	0	0	0
115	1	1	0.0	-0.49999999999999994	98.86087062764145	0	0	0
116	1	1	0.0	0.0	99.72689603142588	0	0	0
117	1	1	0.0	-0.49999999999999994	100.59292143521031	0	0	0
118	1	1	0.0	0.0	101.45894683899475	0	0	0
119	1	1	0.0	-0.49999999999999994	102.32497224277918	0	0	0
120	1	1	0.0	0.0	103.19099764656362	0	0	0
121	1	1	0.0	-0.49999999999999994	104.05702305034805	0	0	0
122	1	1	0.0	0.0	104.92304845413248	0	0	0
123	1	1	0.0	-0.49999999999999994	105.78907385791692	0	0	0
124	1	1	0.0	0.0	106.65509926170135	0	0	0
125	1	1	0.0	-0.49999999999999994	107.52112466548579	0	0	0
126	1	1	0.0	0.0	108.38715006927022	0	0	0
127	1	1	0.0	-0.49999999999999994	109.25317547305465	0	0	0
128	1	1	0.0	0.0	110.11920087683909	0	0	0
129	1	1	0.0	-0.49999999999999994	110.98522628062352	0	0	0
130	1	1	0.0	0.0	111.85125168440796	0	0	0
131	1	1	0.0	-0.49999999999999994	112.71727708819239	0	0	0
132	1	1	0.0	0.0	113.58330249197682	0	0	0
133	1	1	0.0	-0.49999999999999994	114.44932789576126	0	0	0
134	1	1	0.0	0.0	115.31535329954569	0	0	0
135	1	1	0.0	-0.49999999999999994	116.18137870333013	0	0	0
136	1	1	0.0	0.0	117.04740410711456	0	0	0
137	1	1	0.0	-0.49999999999999994	117.913429510899	0	0	0
138	1	1	0.0	0.0	118.77945491468343	0	0	0
139	1	1	0.0	-0.49999999999999994	119.64548031846786	0	0	0
140	1	1	0.0	0.0	120.5115057222523	0	0	0
141	1	1	0.0	-0.49999999999999994	121.37753112603673	0	0	0
142	1	1	0.0	0.0	122.24355652982116	0	0	0
143	1	1	0.0	-0.49999999999999994	123.1095819336056	0	0	0
144	1	1	0.0	0.0	123.97560733739003	0	0	0
145	1	1	0.0	-0.49999999999999994	124.84163274117446	0	0	0
146	1	1	0.0	0.0	125.7076581449589	0	0	0
147	1	1	0.0	-0.49999999999999994	126.57368354874333	0	0	0
148	1	1	0.0	0.0	127.43970895252777	0	0	0
149	1	1	0.0	-0.49999999999999994	128.3057343563122	0	0	0
150	1	1	0.0	0.0	129.17175976009665	0	0	0
151	1	1	0.0	-0.49999999999999994	130.0377851638811	0	0	0
152	1	1	0.0	0.0	130.90381056766554	0	0	0
153	1	1	0.0	-0.49999999999999994	131.76983597145	0	0	0
154	1	1	0.0	0.0	132.63586137523444	0	0	0
155	1	1	0.0	-0.49999999999999994	133.5018867790189	0	0	0
156	1	1	0.0	0.0	134.36791218280334	0	0	0
157	1	1	0.0	-0.49999999999999994	135.23393758658779	0	0	0
158	1	1	0.0	0.0	136.09996299037223	0	0	0
159	1	1	0.0	-0.49999999999999994	136.96598839415668	0	0	0
160	1	1	0.0	0.0	137.83201379794113	0	0	0
161	1	1	0.0	-0.49999999999999994	138.69803920172558	0	0	0
162	1	1	0.0	0.0	139.56406460551003	0	0	0
163	1	1	0.0	-0.49999999999999994	140.43009000929447	0	0	0
164	1	1	0.0	0.0	141.29611541307892	0	0	0
165	1	1	0.0	-0.49999999999999994	142.16214081686337	0	0	0
166	1	1	0.0	0.0	143.02816622064782	0	0	0
167	1	1	0.0	-0.49999999999999994	143.89419162443227	0	0	0
168	1	1	0.0	0.0	144.76021702821672	0	0	0
169	1	1	0.0	-0.49999999999999994	145.62624243200116	0	0	0
170	1	1	0.0	0.0	146.4922678357856	0	0	0
171	1	1	0.0	-0.49999999999999994	147.35829323957006	0	0	0
172	1	1	0.0	0.0	148.2243186433545	0	0	0
173	1	1	0.0	-0.49999999999999994	149.09034404713896	0	0	0
174	1	1	0.0	0.0	149.9563694509234	0	0	0
175	1	1	0.0	-0.49999999999999994	150.82239485470785	0	0	0
176	1	1	0.0	0.0	151.6884202584923	0	0	0
177	1	1	0.0	-0.49999999999999994	152.55444566227675	0	0	0
178	1	1	0.0	0.0	153.4204710660612	0	0	0
179	1	1	0.0	-0.49999999999999994	154.28649646984564	0	0	0
180	1	1	0.0	0.0	155.1525218736301	0	0	0
181	1	1	0.0	-0.49999999999999994	156.01854727741454	0	0	0
182	1	1	0.0	0.0	156.884572681199	0	0	0
183	1	1	0.0	-0.49999999999999994	157.75059808498344	0	0	0
184	1	1	0.0	0.0	158.61662348876789	0	0	0
185	1	1	0.0	-0.49999999999999994	159.48264889255233	0	0	0
186	1	1	0.0	0.0	160.34867429633678	0	0	0
187	1	1	0.0	-0.49999999999999994	161.21469970012123	0	0	0
188	1	1	0.0	0.0	162.08072510390568	0	0	0
189	1	1	0.0	-0.49999999999999994	162.94675050769013	0	0	0
190	1	1	0.0	0.0	163.81277591147457	0	0	0
191	1	1	0.0	-0.49999999999999994	164.67880131525902	0	0	0
192	1	1	0.0	0.0	165.54482671904347	0	0	0
193	1	1	0.0	-0.49999999999999994	166.41085212282792	0	0	0
194	1	1	0.0	0.0	167.27687752661237	0	0	0
195	1	1	0.0	-0.49999999999999994	168.14290293039682	0	0	0
196	1	1	0.0	0.0	169.00892833418126	0	0	0
197	1	1	0.0	-0.49999999999999994	169.8749537379657	0	0	0
198	1	1	0.0	0.0	170.74097914175016	0	0	0
199	1	1	0.0	-0.49999999999999994	171.6070045455346	0	0	0
200	1	1	0.0	0.0	172.47302994931906	0	0	0
201	1	1	0.0	-0.49999999999999994	173.3390553531035	0	0	0
202	1	1	-0.06563691932936039	-1.497842795055034	173.34030081595918	0	0	0
203	1	1	-0.13127383865872022	-2.3626227359837966	172.84245802090416	0	0	0
204	1	1	-0.19691075798808005	-3.226157214056877	173.34245802090416	0	0	0
205	1	1	-0.2625476773174399	-4.09093715498564	172.84461522584914	0	0	0
206	1	1	-0.3281845966467997	-4.95447163305872	173.34461522584914	0	0	0
207	1	1	-0.39382151597615955	-5.819251573987483	172.84677243079412	0	0	0
208	1	1	-0.4594584353055194	-6.682786052060563	173.34677243079412	0	0	0
209	1	1	-0.5250953546348792	-7.547565992989326	172.8489296357391	0	0	0
210	1	1	-0.5907322739642391	-8.411100471062406	173.3489296357391	0	0	0
211	1	1	-0.656369193293599	-9.275880411991169	172.85108684068408	0	0	0
212	1	1	-0.7220061126229589	-10.13941489006425	173.35108684068408	0	0	0
213	1	1	-0.7876430319523188	-11.004194830993013	172.85324404562905	0	0	0
214	1	1	-0.8532799512816787	-11.867729309066094	173.35324404562905	0	0	0
215	1	1	-0.9189168706110385	-12.732509249994857	172.85540125057403	0	0	0
216	1	1	-0.9845537899403984	-13.596043728067938	173.35540125057403	0	0	0
217	1	1	-1.0501907092697582	-14.460823668996701	172.857558455519	0	0	0
218	1	1	-1.115827628599118	-15.324358147069782	173.357558455519	0	0	0
219	1	1	-1.1814645479284778	-16.189138087998543	172.859715660464	0	0	0
220	1	1	-1.2471014672578375	-17.052672566071625	173.359715660464	0	0	0
221	1	1	-1.3127383865871973	-17.917452507000387	172.86187286540897	0	0	0
222	1	1	-1.378375305916557	-18.78098698507347	173.36187286540897	0	0	0
223	1	1	-1.4440122252459169	-19.64576692600223	172.86403007035395	0	0	0
224	1	1	-1.5096491445752767	-20.509301404075313	173.36403007035395	0	0	0
225	1	1	-1.5752860639046364	-21.374081345004075	172.86618727529893	0	0	0
226	1	1	-1.6409229832339962	-22.237615823077157	173.36618727529893	0	0	0
227	1	1	-1.706559902563356	-23.10239576400592	172.8683444802439	0	0	0
228	1	1	-1.7721968218927158	-23.965930242079	173.3683444802439	0	0	0
229	1	1	-1.8378337412220755	-24.830710183007763	172.87050168518888	0	0	0
230	1	1	-1.9034706605514353	-25.694244661080845	173.37050168518888	0	0	0
231	1	1	-1.969107579880795	-26.559024602009607	172.87265889013386	0	0	0
232	1	1	-2.034744499210155	-27.42255908008269	173.37265889013386	0	0	0
233	1	1	-2.1003814185395147	-28.28733902101145	172.87481609507884	0	0	0
234	1	1	-2.1660183378688744	-29.150873499084533	173.37481609507884	0	0	0
235	1	1	-2.231655257198234	-30.015653440013295	172.87697330002382	0	0	0
236	1	1	-2.297292176527594	-30.879187918086377	173.37697330002382	0	0	0
237	1	1	-2.3629290958569538	-31.74396785901514	172.8791305049688	0	0	0
238	1	1	-2.4285660151863135	-32.60750233708822	173.3791305049688	0	0	0
239	1	1	-2.4942029345156733	-33.47228227801698	172.88128770991378	0	0	0
240	1	1	-2.559839853845033	-34.33581675609006	173.38128770991378	0	0	0
241	1	1	-2.625476773174393	-35.200596697018824	172.88344491485876	0	0	0
242	1	1	-2.6911136925037527	-36.0641311750919	173.38344491485876	0	0	0
243	1	1	-2.7567506118331124	-36.928911116020664	172.88560211980374	0	0	0
244	1	1	-2.822387531162472	-37.79244559409374	173.38560211980374	0	0	0
245	1	1	-2.888024450491832	-38.657225535022505	172.8877593247487	0	0	0
246	1	1	-2.9536613698211918	-39.52076001309558	173.3877593247487	0	0	0
247	1	1	-3.0192982891505515	-40.385539954024345	172.8899165296937	0	0	0
248	1	1	-3.0849352084799113	-41.24907443209742	173.3899165296937	0	0	0
249	1	1	-3.150572127809271	-42.113854373026186	172.89207373463867	0	0	0
250	1	1	-3.216209047138631	-42.97738885109926	173.39207373463867	0	0	0
251	1	1	-3.2818459664679906	-43.842168792028026	172.89423093958365	0	0	0
252	1	1	-3.3474828857973504	-44.705703270101104	173.39423093958365	0	0	0
253	1	1	-3.41311980512671	-45.57048321102987	172.89638814452863	0	0	0
254	1	1	-3.47875672445607	-46.434017689102944	173.39638814452863	0	0	0
255	1	1	-3.5443936437854298	-47.29879763003171	172.8985453494736	0	0	0
256	1	1	-3.6100305631147895	-48.162332108104785	173.3985453494736	0	0	0
257	1	1	-3.6756674824441493	-49.02711204903355	172.9007025544186	0	0	0
258	1	1	-3.741304401773509	-49.890646527106625	173.4007025544186	0	0	0
259	1	1	-3.806941321102869	-50.75542646803539	172.90285975936357	0	0	0
260	1	1	-3.8725782404322286	-51.618960946108466	173.40285975936357	0	0	0
261	1	1	-3.9382151597615884	-52.48374088703723	172.90501696430854	0	0	0
262	1	1	-4.003852079090948	-53.347275365110306	173.40501696430854	0	0	0
263	1	1	-4.069488998420308	-54.21205530603907	172.90717416925352	0	0	0
264	1	1	-4.135125917749668	-55.07558978411215	173.40717416925352	0	0	0
265	1	1	-4.2007628370790275	-55.94036972504091	172.9093313741985	0	0	0
266	1	1	-4.266399756408387	-56.80390420311399	173.4093313741985	0	0	0
267	1	1	-4.332036675737747	-57.66868414404275	172.91148857914348	0	0	0
268	1	1	-4.397673595067107	-58.53221862211583	173.41148857914348	0	0	0
269	1	1	-4.463310514396467	-59.39699856304459	172.91364578408846	0	0	0
270	1	1	-4.528947433725826	-60.26053304111767	173.41364578408846	0	0	0
271	1	1	-4.594584353055186	-61.12531298204643	172.91580298903344	0	0	0
272	1	1	-4.660221272384546	-61.98884746011951	173.41580298903344	0	0	0
273	1	1	-4.725858191713906	-62.85362740104827	172.91796019397842	0	0	0
274	1	1	-4.7914951110432655	-63.71716187912135	173.41796019397842	0	0	0
275	1	1	-4.857132030372625	-64.5819418200501	172.9201173989234	0	0	0
276	1	1	-4.922768949701985	-65.44547629812318	173.4201173989234	0	0	0
277	1	1	-4.988405869031345	-66.31025623905194	172.92227460386837	0	0	0
278	1	1	-5.054042788360705	-67.17379071712502	173.42227460386837	0	0	0
279	1	1	-5.119679707690064	-68.03857065805377	172.92443180881335	0	0	0
280	1	1	-5.185316627019424	-68.90210513612685	173.42443180881335	0	0	0
281	1	1	-5.250953546348784	-69.7668850770556	172.92658901375833	0	0	0
282	1	1	-5.316590465678144	-70.63041955512868	173.42658901375833	0	0	0
283	1	1	-5.3822273850075035	-71.49519949605744	172.9287462187033	0	0	0
284	1	1	-5.447864304336863	-72.35873397413052	173.4287462187033	0	0	0
285	1	1	-5.513501223666223	-73.22351391505927	172.9309034236483	0	0	0
286	1	1	-5.579138142995583	-74.08704839313235	173.4309034236483	0	0	0
287	1	1	-5.644775062324943	-74.9518283340611	172.93306062859327	0	0	0
288	1	1	-5.710411981654302	-75.81536281213418	173.43306062859327	0	0	0
289	1	1	-5.776048900983662	-76.68014275306294	172.93521783353825	0	0	0
290	1	1	-5.841685820313022	-77.54367723113602	173.43521783353825	0	0	0
291	1	1	-5.907322739642382	-78.40845717206477	172.93737503848322	0	0	0
292	1	1	-5.9729596589717415	-79.27199165013785	173.43737503848322	0	0	0
293	1	1	-6.038596578301101	-80.1367715910666	172.9395322434282	0	0	0
294	1	1	-6.104233497630461	-81.00030606913968	173.4395322434282	0	0	0
295	1	1	-6.169870416959821	-81.86508601006844	172.94168944837318	0	0	0
296	1	1	-6.235507336289181	-82.72862048814152	173.44168944837318	0	0	0
297	1	1	-6.30114425561854	-83.59340042907027	172.94384665331816	0	0	0
298	1	1	-6.3667811749479	-84.45693490714335	173.44384665331816	0	0	0
299	1	1	-6.43241809427726	-85.3217148480721	172.94600385826314	0	0	0
300	1	1	-6.49805501360662	-86.18524932614518	173.44600385826314	0	0	0
301	1	1	-6.5636919329359795	-87.05002926707394	172.94816106320812	0	0	0
302	1	1	-6.629328852265339	-87.91356374514702	173.44816106320812	0	0	0
303	1	1	-6.694965771594699	-88.77834368607577	172.9503182681531	0	0	0
304	1	1	-6.760602690924059	-89.64187816414885	173.4503182681531	0	0	0
305	1	1	-6.826239610253419	-90.5066581050776	172.95247547309808	0	0	0
306	1	1	-6.891876529582778	-91.37019258315068	173.45247547309808	0	0	0
307	1	1	-6.957513448912138	-92.23497252407944	172.95463267804305	0	0	0
308	1	1	-7.023150368241498	-93.09850700215252	173.45463267804305	0	0	0
309	1	1	-7.088787287570858	-93.96328694308127	172.95678988298803	0	0	0
310	1	1	-7.1544242069002175	-94.82682142115435	173.45678988298803	0	0	0
311	1	1	-7.220061126229577	-95.6916013620831	172.958947087933	0	0	0
312	1	1	-7.285698045558937	-96.55513584015618	173.458947087933	0	0	0
313	1	1	-7.351334964888297	-97.41991578108494	172.961104292878	0	0	0
314	1	1	-7.416971884217657	-98.28345025915802	173.461104292878	0	0	0
315	1	1	-7.482608803547016	-99.14823020008677	172.96326149782297	0	0	0
316	1	1	-7.548245722876376	-100.01176467815985	173.46326149782297	0	0	0
317	1	1	-7.613882642205736	-100.8765446190886	172.96541870276795	0	0	0
318	1	1	-7.679519561535096	-101.74007909716168	173.46541870276795	0	0	0
319	1	1	-7.7451564808644555	-102.60485903809044	172.96757590771293	0	0	0
320	1	1	-7.810793400193815	-103.46839351616352	173.46757590771293	0	0	0
321	1	1	-7.876430319523175	-104.33317345709227	172.9697331126579	0	0	0
322	1	1	-7.942067238852535	-105.19670793516535	173.4697331126579	0	0	0
323	1	1	-8.007704158181895	-106.0614878760941	172.97189031760288	0	0	0
324	1	1	-8.073341077511255	-106.92502235416718	173.47189031760288	0	0	0
325	1	1	-8.138977996840616	-107.78980229509594	172.97404752254786	0	0	0
326	1	1	-8.204614916169977	-108.65333677316902	173.47404752254786	0	0	0
327	1	1	-8.270251835499337	-109.51811671409777	172.97620472749284	0	0	0
328	1	1	-8.335888754828698	-110.38165119217085	173.47620472749284	0	0	0
329	1	1	-8.401525674158059	-111.2464311330996	172.97836193243782	0	0	0
330	1	1	-8.46716259348742	-112.10996561117268	173.47836193243782	0	0	0
331	1	1	-8.53279951281678	-112.97474555210144	172.9805191373828	0	0	0
332	1	1	-8.59843643214614	-113.83828003017452	173.4805191373828	0	0	0
333	1	1	-8.664073351475501	-114.70305997110327	172.98267634232778	0	0	0
334	1	1	-8.729710270804862	-115.56659444917635	173.48267634232778	0	0	0
335	1	1	-8.795347190134223	-116.4313743901051	172.98483354727276	0	0	0
336	1	1	-8.860984109463583	-117.29490886817818	173.48483354727276	0	0	0
337	1	1	-8.926621028792944	-118.15968880910694	172.98699075221774	0	0	0
338	1	1	-8.992257948122305	-119.02322328718002	173.48699075221774	0	0	0
339	1	1	-9.057894867451665	-119.88800322810877	172.98914795716271	0	0	0
340	1	1	-9.123531786781026	-120.75153770618185	173.48914795716271	0	0	0
341	1	1	-9.189168706110387	-121.6163176471106	172.9913051621077	0	0	0
342	1	1	-9.254805625439747	-122.47985212518368	173.4913051621077	0	0	0
343	1	1	-9.320442544769108	-123.34463206611244	172.99346236705267	0	0	0
344	1	1	-9.386079464098469	-124.20816654418552	173.49346236705267	0	0	0
345	1	1	-9.45171638342783	-125.07294648511427	172.99561957199765	0	0	0
346	1	1	-9.51735330275719	-125.93648096318735	173.49561957199765	0	0	0
347	1	1	-9.58299022208655	-126.8012609041161	172.99777677694263	0	0	0
348	1	1	-9.648627141415911	-127.66479538218918	173.49777677694263	0	0	0
349	1	1	-9.714264060745272	-128.52957532311794	172.9999339818876	0	0	0
350	1	1	-9.779900980074633	-129.39310980119103	173.4999339818876	0	0	0
351	1	1	-9.845537899403993	-130.2578897421198	173.0020911868326	0	0	0
352	1	1	-9.911174818733354	-131.1214242201929	173.5020911868326	0	0	0
353	1	1	-9.976811738062715	-131.98620416112166	173.00424839177757	0	0	0
354	1	1	-10.042448657392075	-132.84973863919475	173.50424839177757	0	0	0
355	1	1	-10.108085576721436	-133.71451858012352	173.00640559672254	0	0	0
356	1	1	-10.173722496050797	-134.57805305819662	173.50640559672254	0	0	0
357	1	1	-10.239359415380157	-135.4428329991254	173.00856280166752	0	0	0
358	1	1	-10.304996334709518	-136.30636747719848	173.50856280166752	0	0	0
359	1	1	-10.370633254038879	-137.17114741812725	173.0107200066125	0	0	0
360	1	1	-10.43627017336824	-138.03468189620034	173.5107200066125	0	0	0
361	1	1	-10.5019070926976	-138.8994618371291	173.01287721155748	0	0	0
362	1	1	-10.56754401202696	-139.7629963152022	173.51287721155748	0	0	0
363	1	1	-10.633180931356321	-140.62777625613097	173.01503441650246	0	0	0
364	1	1	-10.698817850685682	-141.49131073420406	173.51503441650246	0	0	0
365	1	1	-10.764454770015043	-142.35609067513283	173.01719162144744	0	0	0
366	1	1	-10.830091689344403	-143.21962515320593	173.51719162144744	0	0	0
367	1	1	-10.895728608673764	-144.0844050941347	173.01934882639242	0	0	0
368	1	1	-10.961365528003125	-144.9479395722078	173.51934882639242	0	0	0
369	1	1	-11.027002447332485	-145.81271951313656	173.0215060313374	0	0	0
370	1	1	-11.092639366661846	-146.67625399120965	173.5215060313374	0	0	0
371	1	1	-11.158276285991207	-147.54103393213842	173.02366323628237	0	0	0
372	1	1	-11.223913205320567	-148.4045684102115	173.52366323628237	0	0	0
373	1	1	-11.289550124649928	-149.26934835114028	173.02582044122735	0	0	0
374	1	1	-11.355187043979289	-150.13288282921337	173.52582044122735	0	0	0
375	1	1	-11.42082396330865	-150.99766277014214	173.02797764617233	0	0	0
376	1	1	-11.48646088263801	-151.86119724821523	173.52797764617233	0	0	0
377	1	1	-11.55209780196737	-152.725977189144	173.0301348511173	0	0	0
378	1	1	-11.617734721296731	-153.5895116672171	173.5301348511173	0	0	0
379	1	1	-11.683371640626092	-154.45429160814587	173.0322920560623	0	0	0
380	1	1	-11.749008559955453	-155.31782608621896	173.5322920560623	0	0	0
381	1	1	-11.814645479284813	-156.18260602714773	173.03444926100727	0	0	0
382	1	1	-11.880282398614174	-157.04614050522082	173.53444926100727	0	0	0
383	1	1	-11.945919317943535	-157.9109204461496	173.03660646595225	0	0	0
384	1	1	-12.011556237272895	-158.77445492422268	173.53660646595225	0	0	0
385	1	1	-12.077193156602256	-159.63923486515145	173.03876367089723	0	0	0
386	1	1	-12.142830075931617	-160.50276934322454	173.53876367089723	0	0	0
387	1	1	-12.208466995260977	-161.3675492841533	173.0409208758422	0	0	0
388	1	1	-12.274103914590338	-162.2310837622264	173.5409208758422	0	0	0
389	1	1	-12.339740833919699	-163.09586370315517	173.04307808078718	0	0	0
390	1	1	-12.40537775324906	-163.95939818122827	173.54307808078718	0	0	0
391	1	1	-12.47101467257842	-164.82417812215704	173.04523528573216	0	0	0
392	1	1	-12.53665159190778	-165.68771260023013	173.54523528573216	0	0	0
393	1	1	-12.602288511237141	-166.5524925411589	173.04739249067714	0	0	0
394	1	1	-12.667925430566502	-167.416027019232	173.54739249067714	0	0	0
395	1	1	-12.733562349895863	-168.28080696016076	173.04954969562212	0	0	0
396	1	1	-12.799199269225223	-169.14434143823385	173.54954969562212	0	0	0
397	1	1	-12.864836188554584	-170.00912137916262	173.0517069005671	0	0	0
398	1	1	-12.930473107883945	-170.8726558572357	173.5517069005671	0	0	0
399	1	1	-12.996110027213305	-171.73743579816448	173.05386410551208	0	0	0
400	1	1	-13.061746946542666	-172.60097027623758	173.55386410551208	0	0	0
401	1	1	-13.127383865872027	-173.46575021716635	173.05602131045706	0	0	0
402	1	1	0.06563691932936036	-0.0021572049449664066	174.20383529403227	0	0	0
403	1	1	0.13127383865872017	-0.0034026678006401885	175.2016780890873	0	0	0
404	1	1	0.19691075798808	0.8601318102724446	175.7016780890873	0	0	0
405	1	1	0.26254767731743983	0.8588863474167708	176.69952088414232	0	0	0
406	1	1	0.32818459664679966	1.7224208254898556	177.19952088414232	0	0	0
407	1	1	0.3938215159761595	1.721175362634182	178.19736367919734	0	0	0
408	1	1	0.45945843530551933	2.5847098407072666	178.69736367919734	0	0	0
409	1	1	0.5250953546348791	2.583464377851593	179.69520647425236	0	0	0
410	1	1	0.5907322739642389	3.4469988559246776	180.19520647425236	0	0	0
411	1	1	0.6563691932935987	3.445753393069004	181.19304926930738	0	0	0
412	1	1	0.7220061126229584	4.3092878711420886	181.69304926930738	0	0	0
413	1	1	0.7876430319523182	4.308042408286415	182.6908920643624	0	0	0
414	1	1	0.853279951281678	5.1715768863594995	183.1908920643624	0	0	0
415	1	1	0.9189168706110378	5.170331423503826	184.18873485941742	0	0	0
416	1	1	0.9845537899403976	6.0338659015769105	184.68873485941742	0	0	0
417	1	1	1.0501907092697573	6.032620438721237	185.68657765447244	0	0	0
418	1	1	1.115827628599117	6.8961549167943215	186.18657765447244	0	0	0
419	1	1	1.1814645479284769	6.894909453938648	187.18442044952747	0	0	0
420	1	1	1.2471014672578367	7.758443932011732	187.68442044952747	0	0	0
421	1	1	1.3127383865871964	7.757198469156059	188.6822632445825	0	0	0
422	1	1	1.3783753059165562	8.620732947229143	189.1822632445825	0	0	0
423	1	1	1.444012225245916	8.619487484373469	190.1801060396375	0	0	0
424	1	1	1.5096491445752758	9.483021962446553	190.6801060396375	0	0	0
425	1	1	1.5752860639046355	9.481776499590879	191.67794883469253	0	0	0
426	1	1	1.6409229832339953	10.345310977663964	192.17794883469253	0	0	0
427	1	1	1.706559902563355	10.344065514808289	193.17579162974755	0	0	0
428	1	1	1.7721968218927149	11.207599992881374	193.67579162974755	0	0	0
429	1	1	1.8378337412220747	11.206354530025699	194.67363442480257	0	0	0
430	1	1	1.9034706605514344	12.069889008098784	195.17363442480257	0	0	0
431	1	1	1.9691075798807942	12.06864354524311	196.1714772198576	0	0	0
432	1	1	2.034744499210154	12.932178023316194	196.6714772198576	0	0	0
433	1	1	2.1003814185395138	12.93093256046052	197.6693200149126	0	0	0
434	1	1	2.1660183378688735	13.794467038533604	198.1693200149126	0	0	0
435	1	1	2.2316552571982333	13.79322157567793	199.16716280996764	0	0	0
436	1	1	2.297292176527593	14.656756053751014	199.66716280996764	0	0	0
437	1	1	2.362929095856953	14.65551059089534	200.66500560502266	0	0	0
438	1	1	2.4285660151863127	15.519045068968424	201.16500560502266	0	0	0
439	1	1	2.4942029345156724	15.51779960611275	202.16284840007768	0	0	0
440	1	1	2.559839853845032	16.381334084185834	202.66284840007768	0	0	0
441	1	1	2.625476773174392	16.38008862133016	203.6606911951327	0	0	0
442	1	1	2.6911136925037518	17.243623099403244	204.1606911951327	0	0	0
443	1	1	2.7567506118331115	17.24237763654757	205.15853399018772	0	0	0
444	1	1	2.8223875311624713	18.105912114620654	205.65853399018772	0	0	0
445	1	1	2.888024450491831	18.10466665176498	206.65637678524274	0	0	0
446	1	1	2.953661369821191	18.968201129838064	207.15637678524274	0	0	0
447	1	1	3.0192982891505507	18.96695566698239	208.15421958029776	0	0	0
448	1	1	3.0849352084799104	19.830490145055474	208.65421958029776	0	0	0
449	1	1	3.15057212780927	19.8292446821998	209.65206237535278	0	0	0
450	1	1	3.21620904713863	20.692779160272885	210.15206237535278	0	0	0
451	1	1	3.2818459664679898	20.69153369741721	211.1499051704078	0	0	0
452	1	1	3.3474828857973495	21.555068175490295	211.6499051704078	0	0	0
453	1	1	3.4131198051267093	21.55382271263462	212.64774796546283	0	0	0
454	1	1	3.478756724456069	22.417357190707705	213.14774796546283	0	0	0
455	1	1	3.544393643785429	22.41611172785203	214.14559076051785	0	0	0
456	1	1	3.6100305631147886	23.279646205925115	214.64559076051785	0	0	0
457	1	1	3.6756674824441484	23.27840074306944	215.64343355557287	0	0	0
458	1	1	3.741304401773508	24.141935221142525	216.14343355557287	0	0	0
459	1	1	3.806941321102868	24.14068975828685	217.1412763506279	0	0	0
460	1	1	3.8725782404322278	25.004224236359935	217.6412763506279	0	0	0
461	1	1	3.9382151597615875	25.00297877350426	218.6391191456829	0	0	0
462	1	1	4.003852079090947	25.866513251577345	219.1391191456829	0	0	0
463	1	1	4.069488998420307	25.86526778872167	220.13696194073793	0	0	0
464	1	1	4.135125917749667	26.728802266794755	220.63696194073793	0	0	0
465	1	1	4.200762837079027	26.72755680393908	221.63480473579295	0	0	0
466	1	1	4.266399756408386	27.591091282012165	222.13480473579295	0	0	0
467	1	1	4.332036675737746	27.58984581915649	223.13264753084798	0	0	0
468	1	1	4.397673595067106	28.453380297229575	223.63264753084798	0	0	0
469	1	1	4.463310514396466	28.4521348343739	224.630490325903	0	0	0
470	1	1	4.5289474337258255	29.315669312446985	225.130490325903	0	0	0
471	1	1	4.594584353055185	29.31442384959131	226.12833312095802	0	0	0
472	1	1	4.660221272384545	30.177958327664395	226.62833312095802	0	0	0
473	1	1	4.725858191713905	30.17671286480872	227.62617591601304	0	0	0
474	1	1	4.791495111043265	31.040247342881806	228.12617591601304	0	0	0
475	1	1	4.857132030372624	31.03900188002613	229.12401871106806	0	0	0
476	1	1	4.922768949701984	31.902536358099216	229.62401871106806	0	0	0
477	1	1	4.988405869031344	31.90129089524354	230.62186150612308	0	0	0
478	1	1	5.054042788360704	32.764825373316626	231.12186150612308	0	0	0
479	1	1	5.1196797076900635	32.763579910460955	232.1197043011781	0	0	0
480	1	1	5.185316627019423	33.62711438853404	232.6197043011781	0	0	0
481	1	1	5.250953546348783	33.62586892567837	233.61754709623312	0	0	0
482	1	1	5.316590465678143	34.48940340375145	234.11754709623312	0	0	0
483	1	1	5.382227385007503	34.48815794089578	235.11538989128815	0	0	0
484	1	1	5.447864304336862	35.35169241896887	235.61538989128815	0	0	0