bb600nuc1bl300bn3d30tot900V2

901 atoms
900 bonds
900 angles

1 atom types
1 bond types
1 angle types

-1000 1000 xlo xhi
-1000 1000 ylo yhi
-1000 1000 zlo zhi

Masses

1 1

Atoms

1	1	1	0.0	0.0	0.0	0	0	0
2	1	1	0.0	0.0	1.0	0	0	0
3	1	1	0.0	-0.49999999999999994	1.8660254037844388	0	0	0
4	1	1	0.0	0.0	2.7320508075688776	0	0	0
5	1	1	0.0	-0.49999999999999994	3.5980762113533165	0	0	0
6	1	1	0.0	0.0	4.464101615137755	0	0	0
7	1	1	0.0	-0.49999999999999994	5.330127018922194	0	0	0
8	1	1	0.0	0.0	6.196152422706632	0	0	0
9	1	1	0.0	-0.49999999999999994	7.06217782649107	0	0	0
10	1	1	0.0	0.0	7.928203230275509	0	0	0
11	1	1	0.0	-0.49999999999999994	8.794228634059948	0	0	0
12	1	1	0.0	0.0	9.660254037844387	0	0	0
13	1	1	0.0	-0.49999999999999994	10.526279441628827	0	0	0
14	1	1	0.0	0.0	11.392304845413266	0	0	0
15	1	1	0.0	-0.49999999999999994	12.258330249197705	0	0	0
16	1	1	0.0	0.0	13.124355652982144	0	0	0
17	1	1	0.0	-0.49999999999999994	13.990381056766584	0	0	0
18	1	1	0.0	0.0	14.856406460551023	0	0	0
19	1	1	0.0	-0.49999999999999994	15.722431864335462	0	0	0
20	1	1	0.0	0.0	16.5884572681199	0	0	0
21	1	1	0.0	-0.49999999999999994	17.454482671904337	0	0	0
22	1	1	0.0	0.0	18.320508075688775	0	0	0
23	1	1	0.0	-0.49999999999999994	19.186533479473212	0	0	0
24	1	1	0.0	0.0	20.05255888325765	0	0	0
25	1	1	0.0	-0.49999999999999994	20.918584287042087	0	0	0
26	1	1	0.0	0.0	21.784609690826525	0	0	0
27	1	1	0.0	-0.49999999999999994	22.650635094610962	0	0	0
28	1	1	0.0	0.0	23.5166604983954	0	0	0
29	1	1	0.0	-0.49999999999999994	24.382685902179837	0	0	0
30	1	1	0.0	0.0	25.248711305964274	0	0	0
31	1	1	0.0	-0.49999999999999994	26.114736709748712	0	0	0
32	1	1	0.0	0.0	26.98076211353315	0	0	0
33	1	1	0.0	-0.49999999999999994	27.846787517317587	0	0	0
34	1	1	0.0	0.0	28.712812921102024	0	0	0
35	1	1	0.0	-0.49999999999999994	29.578838324886462	0	0	0
36	1	1	0.0	0.0	30.4448637286709	0	0	0
37	1	1	0.0	-0.49999999999999994	31.310889132455337	0	0	0
38	1	1	0.0	0.0	32.17691453623978	0	0	0
39	1	1	0.0	-0.49999999999999994	33.04293994002422	0	0	0
40	1	1	0.0	0.0	33.90896534380866	0	0	0
41	1	1	0.0	-0.49999999999999994	34.7749907475931	0	0	0
42	1	1	0.0	0.0	35.64101615137754	0	0	0
43	1	1	0.0	-0.49999999999999994	36.50704155516198	0	0	0
44	1	1	0.0	0.0	37.373066958946424	0	0	0
45	1	1	0.0	-0.49999999999999994	38.239092362730865	0	0	0
46	1	1	0.0	0.0	39.105117766515306	0	0	0
47	1	1	0.0	-0.49999999999999994	39.97114317029975	0	0	0
48	1	1	0.0	0.0	40.83716857408419	0	0	0
49	1	1	0.0	-0.49999999999999994	41.70319397786863	0	0	0
50	1	1	0.0	0.0	42.56921938165307	0	0	0
51	1	1	0.0	-0.49999999999999994	43.43524478543751	0	0	0
52	1	1	0.0	0.0	44.30127018922195	0	0	0
53	1	1	0.0	-0.49999999999999994	45.16729559300639	0	0	0
54	1	1	0.0	0.0	46.033320996790835	0	0	0
55	1	1	0.0	-0.49999999999999994	46.899346400575276	0	0	0
56	1	1	0.0	0.0	47.76537180435972	0	0	0
57	1	1	0.0	-0.49999999999999994	48.63139720814416	0	0	0
58	1	1	0.0	0.0	49.4974226119286	0	0	0
59	1	1	0.0	-0.49999999999999994	50.36344801571304	0	0	0
60	1	1	0.0	0.0	51.22947341949748	0	0	0
61	1	1	0.0	-0.49999999999999994	52.09549882328192	0	0	0
62	1	1	0.0	0.0	52.96152422706636	0	0	0
63	1	1	0.0	-0.49999999999999994	53.827549630850804	0	0	0
64	1	1	0.0	0.0	54.693575034635245	0	0	0
65	1	1	0.0	-0.49999999999999994	55.559600438419686	0	0	0
66	1	1	0.0	0.0	56.42562584220413	0	0	0
67	1	1	0.0	-0.49999999999999994	57.29165124598857	0	0	0
68	1	1	0.0	0.0	58.15767664977301	0	0	0
69	1	1	0.0	-0.49999999999999994	59.02370205355745	0	0	0
70	1	1	0.0	0.0	59.88972745734189	0	0	0
71	1	1	0.0	-0.49999999999999994	60.75575286112633	0	0	0
72	1	1	0.0	0.0	61.62177826491077	0	0	0
73	1	1	0.0	-0.49999999999999994	62.487803668695214	0	0	0
74	1	1	0.0	0.0	63.353829072479655	0	0	0
75	1	1	0.0	-0.49999999999999994	64.21985447626409	0	0	0
76	1	1	0.0	0.0	65.08587988004852	0	0	0
77	1	1	0.0	-0.49999999999999994	65.95190528383296	0	0	0
78	1	1	0.0	0.0	66.81793068761739	0	0	0
79	1	1	0.0	-0.49999999999999994	67.68395609140183	0	0	0
80	1	1	0.0	0.0	68.54998149518626	0	0	0
81	1	1	0.0	-0.49999999999999994	69.41600689897069	0	0	0
82	1	1	0.0	0.0	70.28203230275513	0	0	0
83	1	1	0.0	-0.49999999999999994	71.14805770653956	0	0	0
84	1	1	0.0	0.0	72.014083110324	0	0	0
85	1	1	0.0	-0.49999999999999994	72.88010851410843	0	0	0
86	1	1	0.0	0.0	73.74613391789286	0	0	0
87	1	1	0.0	-0.49999999999999994	74.6121593216773	0	0	0
88	1	1	0.0	0.0	75.47818472546173	0	0	0
89	1	1	0.0	-0.49999999999999994	76.34421012924616	0	0	0
90	1	1	0.0	0.0	77.2102355330306	0	0	0
91	1	1	0.0	-0.49999999999999994	78.07626093681503	0	0	0
92	1	1	0.0	0.0	78.94228634059947	0	0	0
93	1	1	0.0	-0.49999999999999994	79.8083117443839	0	0	0
94	1	1	0.0	0.0	80.67433714816833	0	0	0
95	1	1	0.0	-0.49999999999999994	81.54036255195277	0	0	0
96	1	1	0.0	0.0	82.4063879557372	0	0	0
97	1	1	0.0	-0.49999999999999994	83.27241335952164	0	0	0
98	1	1	0.0	0.0	84.13843876330607	0	0	0
99	1	1	0.0	-0.49999999999999994	85.0044641670905	0	0	0
100	1	1	0.0	0.0	85.87048957087494	0	0	0
101	1	1	0.0	-0.49999999999999994	86.73651497465937	0	0	0
102	1	1	0.0	0.0	87.6025403784438	0	0	0
103	1	1	0.0	-0.49999999999999994	88.46856578222824	0	0	0
104	1	1	0.0	0.0	89.33459118601267	0	0	0
105	1	1	0.0	-0.49999999999999994	90.20061658979711	0	0	0
106	1	1	0.0	0.0	91.06664199358154	0	0	0
107	1	1	0.0	-0.49999999999999994	91.93266739736598	0	0	0
108	1	1	0.0	0.0	92.79869280115041	0	0	0
109	1	1	0.0	-0.49999999999999994	93.66471820493484	0	0	0
110	1	1	0.0	0.0	94.53074360871928	0	0	0
111	1	1	0.0	-0.49999999999999994	95.39676901250371	0	0	0
112	1	1	0.0	0.0	96.26279441628814	0	0	0
113	1	1	0.0	-0.49999999999999994	97.12881982007258	0	0	0
114	1	1	0.0	0.0	97.99484522385701	0	0	0
115	1	1	0.0	-0.49999999999999994	98.86087062764145	0	0	0
116	1	1	0.0	0.0	99.72689603142588	0	0	0
117	1	1	0.0	-0.49999999999999994	100.59292143521031	0	0	0
118	1	1	0.0	0.0	101.45894683899475	0	0	0
119	1	1	0.0	-0.49999999999999994	102.32497224277918	0	0	0
120	1	1	0.0	0.0	103.19099764656362	0	0	0
121	1	1	0.0	-0.49999999999999994	104.05702305034805	0	0	0
122	1	1	0.0	0.0	104.92304845413248	0	0	0
123	1	1	0.0	-0.49999999999999994	105.78907385791692	0	0	0
124	1	1	0.0	0.0	106.65509926170135	0	0	0
125	1	1	0.0	-0.49999999999999994	107.52112466548579	0	0	0
126	1	1	0.0	0.0	108.38715006927022	0	0	0
127	1	1	0.0	-0.49999999999999994	109.25317547305465	0	0	0
128	1	1	0.0	0.0	110.11920087683909	0	0	0
129	1	1	0.0	-0.49999999999999994	110.98522628062352	0	0	0
130	1	1	0.0	0.0	111.85125168440796	0	0	0
131	1	1	0.0	-0.49999999999999994	112.71727708819239	0	0	0
132	1	1	0.0	0.0	113.58330249197682	0	0	0
133	1	1	0.0	-0.49999999999999994	114.44932789576126	0	0	0
134	1	1	0.0	0.0	115.31535329954569	0	0	0
135	1	1	0.0	-0.49999999999999994	116.18137870333013	0	0	0
136	1	1	0.0	0.0	117.04740410711456	0	0	0
137	1	1	0.0	-0.49999999999999994	117.913429510899	0	0	0
138	1	1	0.0	0.0	118.77945491468343	0	0	0
139	1	1	0.0	-0.49999999999999994	119.64548031846786	0	0	0
140	1	1	0.0	0.0	120.5115057222523	0	0	0
141	1	1	0.0	-0.49999999999999994	121.37753112603673	0	0	0
142	1	1	0.0	0.0	122.24355652982116	0	0	0
143	1	1	0.0	-0.49999999999999994	123.1095819336056	0	0	0
144	1	1	0.0	0.0	123.97560733739003	0	0	0
145	1	1	0.0	-0.49999999999999994	124.84163274117446	0	0	0
146	1	1	0.0	0.0	125.7076581449589	0	0	0
147	1	1	0.0	-0.49999999999999994	126.57368354874333	0	0	0
148	1	1	0.0	0.0	127.43970895252777	0	0	0
149	1	1	0.0	-0.49999999999999994	128.3057343563122	0	0	0
150	1	1	0.0	0.0	129.17175976009665	0	0	0
151	1	1	0.0	-0.49999999999999994	130.0377851638811	0	0	0
152	1	1	0.0	0.0	130.90381056766554	0	0	0
153	1	1	0.0	-0.49999999999999994	131.76983597145	0	0	0
154	1	1	0.0	0.0	132.63586137523444	0	0	0
155	1	1	0.0	-0.49999999999999994	133.5018867790189	0	0	0
156	1	1	0.0	0.0	134.36791218280334	0	0	0
157	1	1	0.0	-0.49999999999999994	135.23393758658779	0	0	0
158	1	1	0.0	0.0	136.09996299037223	0	0	0
159	1	1	0.0	-0.49999999999999994	136.96598839415668	0	0	0
160	1	1	0.0	0.0	137.83201379794113	0	0	0
161	1	1	0.0	-0.49999999999999994	138.69803920172558	0	0	0
162	1	1	0.0	0.0	139.56406460551003	0	0	0
163	1	1	0.0	-0.49999999999999994	140.43009000929447	0	0	0
164	1	1	0.0	0.0	141.29611541307892	0	0	0
165	1	1	0.0	-0.49999999999999994	142.16214081686337	0	0	0
166	1	1	0.0	0.0	143.02816622064782	0	0	0
167	1	1	0.0	-0.49999999999999994	143.89419162443227	0	0	0
168	1	1	0.0	0.0	144.76021702821672	0	0	0
169	1	1	0.0	-0.49999999999999994	145.62624243200116	0	0	0
170	1	1	0.0	0.0	146.4922678357856	0	0	0
171	1	1	0.0	-0.49999999999999994	147.35829323957006	0	0	0
172	1	1	0.0	0.0	148.2243186433545	0	0	0
173	1	1	0.0	-0.49999999999999994	149.09034404713896	0	0	0
174	1	1	0.0	0.0	149.9563694509234	0	0	0
175	1	1	0.0	-0.49999999999999994	150.82239485470785	0	0	0
176	1	1	0.0	0.0	151.6884202584923	0	0	0
177	1	1	0.0	-0.49999999999999994	152.55444566227675	0	0	0
178	1	1	0.0	0.0	153.4204710660612	0	0	0
179	1	1	0.0	-0.49999999999999994	154.28649646984564	0	0	0
180	1	1	0.0	0.0	155.1525218736301	0	0	0
181	1	1	0.0	-0.49999999999999994	156.01854727741454	0	0	0
182	1	1	0.0	0.0	156.884572681199	0	0	0
183	1	1	0.0	-0.49999999999999994	157.75059808498344	0	0	0
184	1	1	0.0	0.0	158.61662348876789	0	0	0
185	1	1	0.0	-0.49999999999999994	159.48264889255233	0	0	0
186	1	1	0.0	0.0	160.34867429633678	0	0	0
187	1	1	0.0	-0.49999999999999994	161.21469970012123	0	0	0
188	1	1	0.0	0.0	162.08072510390568	0	0	0
189	1	1	0.0	-0.49999999999999994	162.94675050769013	0	0	0
190	1	1	0.0	0.0	163.81277591147457	0	0	0
191	1	1	0.0	-0.49999999999999994	164.67880131525902	0	0	0
192	1	1	0.0	0.0	165.54482671904347	0	0	0
193	1	1	0.0	-0.49999999999999994	166.41085212282792	0	0	0
194	1	1	0.0	0.0	167.27687752661237	0	0	0
195	1	1	0.0	-0.49999999999999994	168.14290293039682	0	0	0
196	1	1	0.0	0.0	169.00892833418126	0	0	0
197	1	1	0.0	-0.49999999999999994	169.8749537379657	0	0	0
198	1	1	0.0	0.0	170.74097914175016	0	0	0
199	1	1	0.0	-0.49999999999999994	171.6070045455346	0	0	0
200	1	1	0.0	0.0	172.47302994931906	0	0	0
201	1	1	0.0	-0.49999999999999994	173.3390553531035	0	0	0
202	1	1	0.0	0.0	174.20508075688795	0	0	0
203	1	1	0.0	-0.49999999999999994	175.0711061606724	0	0	0
204	1	1	0.0	0.0	175.93713156445685	0	0	0
205	1	1	0.0	-0.49999999999999994	176.8031569682413	0	0	0
206	1	1	0.0	0.0	177.66918237202574	0	0	0
207	1	1	0.0	-0.49999999999999994	178.5352077758102	0	0	0
208	1	1	0.0	0.0	179.40123317959464	0	0	0
209	1	1	0.0	-0.49999999999999994	180.2672585833791	0	0	0
210	1	1	0.0	0.0	181.13328398716354	0	0	0
211	1	1	0.0	-0.49999999999999994	181.99930939094799	0	0	0
212	1	1	0.0	0.0	182.86533479473243	0	0	0
213	1	1	0.0	-0.49999999999999994	183.73136019851688	0	0	0
214	1	1	0.0	0.0	184.59738560230133	0	0	0
215	1	1	0.0	-0.49999999999999994	185.46341100608578	0	0	0
216	1	1	0.0	0.0	186.32943640987023	0	0	0
217	1	1	0.0	-0.49999999999999994	187.19546181365467	0	0	0
218	1	1	0.0	0.0	188.06148721743912	0	0	0
219	1	1	0.0	-0.49999999999999994	188.92751262122357	0	0	0
220	1	1	0.0	0.0	189.79353802500802	0	0	0
221	1	1	0.0	-0.49999999999999994	190.65956342879247	0	0	0
222	1	1	0.0	0.0	191.52558883257691	0	0	0
223	1	1	0.0	-0.49999999999999994	192.39161423636136	0	0	0
224	1	1	0.0	0.0	193.2576396401458	0	0	0
225	1	1	0.0	-0.49999999999999994	194.12366504393026	0	0	0
226	1	1	0.0	0.0	194.9896904477147	0	0	0
227	1	1	0.0	-0.49999999999999994	195.85571585149916	0	0	0
228	1	1	0.0	0.0	196.7217412552836	0	0	0
229	1	1	0.0	-0.49999999999999994	197.58776665906805	0	0	0
230	1	1	0.0	0.0	198.4537920628525	0	0	0
231	1	1	0.0	-0.49999999999999994	199.31981746663695	0	0	0
232	1	1	0.0	0.0	200.1858428704214	0	0	0
233	1	1	0.0	-0.49999999999999994	201.05186827420584	0	0	0
234	1	1	0.0	0.0	201.9178936779903	0	0	0
235	1	1	0.0	-0.49999999999999994	202.78391908177474	0	0	0
236	1	1	0.0	0.0	203.6499444855592	0	0	0
237	1	1	0.0	-0.49999999999999994	204.51596988934364	0	0	0
238	1	1	0.0	0.0	205.38199529312809	0	0	0
239	1	1	0.0	-0.49999999999999994	206.24802069691253	0	0	0
240	1	1	0.0	0.0	207.11404610069698	0	0	0
241	1	1	0.0	-0.49999999999999994	207.98007150448143	0	0	0
242	1	1	0.0	0.0	208.84609690826588	0	0	0
243	1	1	0.0	-0.49999999999999994	209.71212231205033	0	0	0
244	1	1	0.0	0.0	210.57814771583477	0	0	0
245	1	1	0.0	-0.49999999999999994	211.44417311961922	0	0	0
246	1	1	0.0	0.0	212.31019852340367	0	0	0
247	1	1	0.0	-0.49999999999999994	213.17622392718812	0	0	0
248	1	1	0.0	0.0	214.04224933097257	0	0	0
249	1	1	0.0	-0.49999999999999994	214.90827473475701	0	0	0
250	1	1	0.0	0.0	215.77430013854146	0	0	0
251	1	1	0.0	-0.49999999999999994	216.6403255423259	0	0	0
252	1	1	0.0	0.0	217.50635094611036	0	0	0
253	1	1	0.0	-0.49999999999999994	218.3723763498948	0	0	0
254	1	1	0.0	0.0	219.23840175367926	0	0	0
255	1	1	0.0	-0.49999999999999994	220.1044271574637	0	0	0
256	1	1	0.0	0.0	220.97045256124815	0	0	0
257	1	1	0.0	-0.49999999999999994	221.8364779650326	0	0	0
258	1	1	0.0	0.0	222.70250336881705	0	0	0
259	1	1	0.0	-0.49999999999999994	223.5685287726015	0	0	0
260	1	1	0.0	0.0	224.43455417638594	0	0	0
261	1	1	0.0	-0.49999999999999994	225.3005795801704	0	0	0
262	1	1	0.0	0.0	226.16660498395484	0	0	0
263	1	1	0.0	-0.49999999999999994	227.0326303877393	0	0	0
264	1	1	0.0	0.0	227.89865579152374	0	0	0
265	1	1	0.0	-0.49999999999999994	228.76468119530819	0	0	0
266	1	1	0.0	0.0	229.63070659909263	0	0	0
267	1	1	0.0	-0.49999999999999994	230.49673200287708	0	0	0
268	1	1	0.0	0.0	231.36275740666153	0	0	0
269	1	1	0.0	-0.49999999999999994	232.22878281044598	0	0	0
270	1	1	0.0	0.0	233.09480821423043	0	0	0
271	1	1	0.0	-0.49999999999999994	233.96083361801487	0	0	0
272	1	1	0.0	0.0	234.82685902179932	0	0	0
273	1	1	0.0	-0.49999999999999994	235.69288442558377	0	0	0
274	1	1	0.0	0.0	236.55890982936822	0	0	0
275	1	1	0.0	-0.49999999999999994	237.42493523315267	0	0	0
276	1	1	0.0	0.0	238.29096063693711	0	0	0
277	1	1	0.0	-0.49999999999999994	239.15698604072156	0	0	0
278	1	1	0.0	0.0	240.023011444506	0	0	0
279	1	1	0.0	-0.49999999999999994	240.88903684829046	0	0	0
280	1	1	0.0	0.0	241.7550622520749	0	0	0
281	1	1	0.0	-0.49999999999999994	242.62108765585936	0	0	0
282	1	1	0.0	0.0	243.4871130596438	0	0	0
283	1	1	0.0	-0.49999999999999994	244.35313846342825	0	0	0
284	1	1	0.0	0.0	245.2191638672127	0	0	0
285	1	1	0.0	-0.49999999999999994	246.08518927099715	0	0	0
286	1	1	0.0	0.0	246.9512146747816	0	0	0
287	1	1	0.0	-0.49999999999999994	247.81724007856604	0	0	0
288	1	1	0.0	0.0	248.6832654823505	0	0	0
289	1	1	0.0	-0.49999999999999994	249.54929088613494	0	0	0
290	1	1	0.0	0.0	250.4153162899194	0	0	0
291	1	1	0.0	-0.49999999999999994	251.28134169370384	0	0	0
292	1	1	0.0	0.0	252.14736709748829	0	0	0
293	1	1	0.0	-0.49999999999999994	253.01339250127273	0	0	0
294	1	1	0.0	0.0	253.87941790505718	0	0	0
295	1	1	0.0	-0.49999999999999994	254.74544330884163	0	0	0
296	1	1	0.0	0.0	255.61146871262608	0	0	0
297	1	1	0.0	-0.49999999999999994	256.4774941164105	0	0	0
298	1	1	0.0	0.0	257.34351952019495	0	0	0
299	1	1	0.0	-0.49999999999999994	258.20954492397937	0	0	0
300	1	1	0.0	0.0	259.0755703277638	0	0	0
301	1	1	0.0	-0.49999999999999994	259.9415957315482	0	0	0
302	1	1	0.8347254222934173	-0.550187332651835	260.4899703307214	0	0	0
303	1	1	1.6694508445868483	-0.8678381372630957	260.9397829980696	0	0	0
304	1	1	2.5041762668802794	-0.637114342701175	261.4397829980696	0	0	0
305	1	1	3.3389016891737104	-0.9547651473124357	261.88959566541774	0	0	0
306	1	1	4.173627111467141	-0.724041352750515	262.38959566541774	0	0	0
307	1	1	5.008352533760572	-1.0416921573617757	262.8394083327659	0	0	0
308	1	1	5.843077956054003	-0.810968362799855	263.3394083327659	0	0	0
309	1	1	6.677803378347434	-1.1286191674111157	263.7892210001141	0	0	0
310	1	1	7.512528800640865	-0.897895372849195	264.2892210001141	0	0	0
311	1	1	8.347254222934296	-1.2155461774604557	264.73903366746225	0	0	0
312	1	1	9.181979645227727	-0.984822382898535	265.23903366746225	0	0	0
313	1	1	10.016705067521158	-1.3024731875097957	265.6888463348104	0	0	0
314	1	1	10.85143048981459	-1.071749392947875	266.1888463348104	0	0	0
315	1	1	11.68615591210802	-1.3894001975591357	266.6386590021586	0	0	0
316	1	1	12.520881334401452	-1.158676402997215	267.1386590021586	0	0	0
317	1	1	13.355606756694883	-1.4763272076084757	267.58847166950676	0	0	0
318	1	1	14.190332178988314	-1.245603413046555	268.08847166950676	0	0	0
319	1	1	15.025057601281745	-1.5632542176578157	268.53828433685493	0	0	0
320	1	1	15.859783023575176	-1.332530423095895	269.03828433685493	0	0	0
321	1	1	16.694508445868607	-1.6501812277071557	269.4880970042031	0	0	0
322	1	1	17.529233868162038	-1.419457433145235	269.9880970042031	0	0	0
323	1	1	18.36395929045547	-1.7371082377564957	270.43790967155127	0	0	0
324	1	1	19.1986847127489	-1.506384443194575	270.93790967155127	0	0	0
325	1	1	20.03341013504233	-1.8240352478058357	271.38772233889944	0	0	0
326	1	1	20.868135557335762	-1.593311453243915	271.88772233889944	0	0	0
327	1	1	21.702860979629193	-1.9109622578551757	272.3375350062476	0	0	0
328	1	1	22.537586401922624	-1.680238463293255	272.8375350062476	0	0	0
329	1	1	23.372311824216055	-1.9978892679045157	273.2873476735958	0	0	0
330	1	1	24.207037246509486	-1.767165473342595	273.7873476735958	0	0	0
331	1	1	25.041762668802917	-2.0848162779538555	274.23716034094394	0	0	0
332	1	1	25.87648809109635	-1.8540924833919348	274.73716034094394	0	0	0
333	1	1	26.71121351338978	-2.1717432880031957	275.1869730082921	0	0	0
334	1	1	27.54593893568321	-1.941019493441275	275.6869730082921	0	0	0
335	1	1	28.38066435797664	-2.258670298052536	276.1367856756403	0	0	0
336	1	1	29.215389780270073	-2.0279465034906154	276.6367856756403	0	0	0
337	1	1	30.050115202563504	-2.345597308101876	277.08659834298845	0	0	0
338	1	1	30.884840624856935	-2.1148735135399557	277.58659834298845	0	0	0
339	1	1	31.719566047150366	-2.4325243181512164	278.0364110103366	0	0	0
340	1	1	32.5542914694438	-2.201800523589296	278.5364110103366	0	0	0
341	1	1	33.38901689173723	-2.5194513282005566	278.9862236776848	0	0	0
342	1	1	34.22374231403066	-2.288727533638636	279.4862236776848	0	0	0
343	1	1	35.05846773632409	-2.606378338249897	279.93603634503296	0	0	0
344	1	1	35.89319315861752	-2.3756545436879763	280.43603634503296	0	0	0
345	1	1	36.72791858091095	-2.693305348299237	280.88584901238113	0	0	0
346	1	1	37.56264400320438	-2.4625815537373166	281.38584901238113	0	0	0
347	1	1	38.397369425497814	-2.7802323583485773	281.8356616797293	0	0	0
348	1	1	39.232094847791245	-2.549508563786657	282.3356616797293	0	0	0
349	1	1	40.066820270084676	-2.8671593683979175	282.78547434707747	0	0	0
350	1	1	40.90154569237811	-2.636435573835997	283.28547434707747	0	0	0
351	1	1	41.73627111467154	-2.9540863784472577	283.73528701442564	0	0	0
352	1	1	42.57099653696497	-2.7233625838853373	284.23528701442564	0	0	0
353	1	1	43.4057219592584	-3.041013388496598	284.6850996817738	0	0	0
354	1	1	44.24044738155183	-2.8102895939346775	285.1850996817738	0	0	0
355	1	1	45.07517280384526	-3.127940398545938	285.634912349122	0	0	0
356	1	1	45.909898226138694	-2.8972166039840177	286.134912349122	0	0	0
357	1	1	46.744623648432125	-3.2148674085952784	286.58472501647014	0	0	0
358	1	1	47.579349070725556	-2.984143614033358	287.08472501647014	0	0	0
359	1	1	48.41407449301899	-3.3017944186446186	287.5345376838183	0	0	0
360	1	1	49.24879991531242	-3.071070624082698	288.0345376838183	0	0	0
361	1	1	50.08352533760585	-3.388721428693959	288.4843503511665	0	0	0
362	1	1	50.91825075989928	-3.1579976341320384	288.9843503511665	0	0	0
363	1	1	51.75297618219271	-3.475648438743299	289.43416301851465	0	0	0
364	1	1	52.58770160448614	-3.2449246441813786	289.93416301851465	0	0	0
365	1	1	53.42242702677957	-3.5625754487926393	290.3839756858628	0	0	0
366	1	1	54.257152449073004	-3.331851654230719	290.8839756858628	0	0	0
367	1	1	55.091877871366435	-3.6495024588419795	291.333788353211	0	0	0
368	1	1	55.926603293659866	-3.418778664280059	291.833788353211	0	0	0
369	1	1	56.7613287159533	-3.7364294688913198	292.28360102055916	0	0	0
370	1	1	57.59605413824673	-3.5057056743293993	292.78360102055916	0	0	0
371	1	1	58.43077956054016	-3.82335647894066	293.23341368790733	0	0	0
372	1	1	59.26550498283359	-3.5926326843787395	293.73341368790733	0	0	0
373	1	1	60.10023040512702	-3.9102834889900002	294.1832263552555	0	0	0
374	1	1	60.93495582742045	-3.6795596944280797	294.6832263552555	0	0	0
375	1	1	61.769681249713884	-3.9972104990393404	295.13303902260367	0	0	0
376	1	1	62.604406672007315	-3.76648670447742	295.63303902260367	0	0	0
377	1	1	63.439132094300746	-4.084137509088681	296.08285168995184	0	0	0
378	1	1	64.27385751659418	-3.85341371452676	296.58285168995184	0	0	0
379	1	1	65.10858293888761	-4.171064519138021	297.0326643573	0	0	0
380	1	1	65.94330836118104	-3.9403407245761004	297.5326643573	0	0	0
381	1	1	66.77803378347447	-4.257991529187361	297.9824770246482	0	0	0
382	1	1	67.6127592057679	-4.027267734625441	298.4824770246482	0	0	0
383	1	1	68.44748462806133	-4.344918539236701	298.93228969199635	0	0	0
384	1	1	69.28221005035476	-4.114194744674781	299.43228969199635	0	0	0
385	1	1	70.1169354726482	-4.431845549286042	299.8821023593445	0	0	0
386	1	1	70.95166089494163	-4.201121754724121	300.3821023593445	0	0	0
387	1	1	71.78638631723506	-4.518772559335382	300.8319150266927	0	0	0
388	1	1	72.62111173952849	-4.288048764773461	301.3319150266927	0	0	0
389	1	1	73.45583716182192	-4.605699569384722	301.78172769404085	0	0	0
390	1	1	74.29056258411535	-4.3749757748228015	302.28172769404085	0	0	0
391	1	1	75.12528800640878	-4.692626579434062	302.731540361389	0	0	0
392	1	1	75.96001342870221	-4.461902784872142	303.231540361389	0	0	0
393	1	1	76.79473885099564	-4.7795535894834025	303.6813530287372	0	0	0
394	1	1	77.62946427328907	-4.548829794921482	304.1813530287372	0	0	0
395	1	1	78.4641896955825	-4.866480599532743	304.63116569608536	0	0	0
396	1	1	79.29891511787594	-4.635756804970822	305.13116569608536	0	0	0
397	1	1	80.13364054016937	-4.953407609582083	305.58097836343353	0	0	0
398	1	1	80.9683659624628	-4.722683815020162	306.08097836343353	0	0	0
399	1	1	81.80309138475623	-5.040334619631423	306.5307910307817	0	0	0
400	1	1	82.63781680704966	-4.809610825069503	307.0307910307817	0	0	0
401	1	1	83.47254222934309	-5.127261629680763	307.48060369812987	0	0	0
402	1	1	84.30726765163652	-4.896537835118843	307.98060369812987	0	0	0
403	1	1	85.14199307392995	-5.214188639730104	308.43041636547804	0	0	0
404	1	1	85.97671849622338	-4.983464845168183	308.93041636547804	0	0	0
405	1	1	86.81144391851682	-5.301115649779444	309.3802290328262	0	0	0
406	1	1	87.64616934081025	-5.070391855217523	309.8802290328262	0	0	0
407	1	1	88.48089476310368	-5.388042659828784	310.3300417001744	0	0	0
408	1	1	89.31562018539711	-5.157318865266864	310.8300417001744	0	0	0
409	1	1	90.15034560769054	-5.474969669878124	311.27985436752255	0	0	0
410	1	1	90.98507102998397	-5.244245875316204	311.77985436752255	0	0	0
411	1	1	91.8197964522774	-5.5618966799274645	312.2296670348707	0	0	0
412	1	1	92.65452187457083	-5.331172885365544	312.7296670348707	0	0	0
413	1	1	93.48924729686426	-5.648823689976805	313.1794797022189	0	0	0
414	1	1	94.3239727191577	-5.418099895414884	313.6794797022189	0	0	0
415	1	1	95.15869814145113	-5.735750700026145	314.12929236956705	0	0	0
416	1	1	95.99342356374456	-5.5050269054642245	314.62929236956705	0	0	0
417	1	1	96.82814898603799	-5.822677710075485	315.0791050369152	0	0	0
418	1	1	97.66287440833142	-5.591953915513565	315.5791050369152	0	0	0
419	1	1	98.49759983062485	-5.909604720124825	316.0289177042634	0	0	0
420	1	1	99.33232525291828	-5.678880925562905	316.5289177042634	0	0	0
421	1	1	100.16705067521171	-5.996531730174166	316.97873037161156	0	0	0
422	1	1	101.00177609750514	-5.765807935612245	317.47873037161156	0	0	0
423	1	1	101.83650151979857	-6.083458740223506	317.92854303895973	0	0	0
424	1	1	102.671226942092	-5.852734945661585	318.42854303895973	0	0	0
425	1	1	103.50595236438544	-6.170385750272846	318.8783557063079	0	0	0
426	1	1	104.34067778667887	-5.939661955710926	319.3783557063079	0	0	0
427	1	1	105.1754032089723	-6.257312760322186	319.82816837365607	0	0	0
428	1	1	106.01012863126573	-6.026588965760266	320.32816837365607	0	0	0
429	1	1	106.84485405355916	-6.3442397703715265	320.77798104100424	0	0	0
430	1	1	107.67957947585259	-6.113515975809606	321.27798104100424	0	0	0
431	1	1	108.51430489814602	-6.431166780420867	321.7277937083524	0	0	0
432	1	1	109.34903032043945	-6.200442985858946	322.2277937083524	0	0	0
433	1	1	110.18375574273288	-6.518093790470207	322.6776063757006	0	0	0
434	1	1	111.01848116502632	-6.2873699959082865	323.1776063757006	0	0	0
435	1	1	111.85320658731975	-6.605020800519547	323.62741904304875	0	0	0
436	1	1	112.68793200961318	-6.374297005957627	324.12741904304875	0	0	0
437	1	1	113.52265743190661	-6.691947810568887	324.5772317103969	0	0	0
438	1	1	114.35738285420004	-6.461224016006967	325.0772317103969	0	0	0
439	1	1	115.19210827649347	-6.778874820618228	325.5270443777451	0	0	0
440	1	1	116.0268336987869	-6.548151026056307	326.0270443777451	0	0	0
441	1	1	116.86155912108033	-6.865801830667568	326.47685704509325	0	0	0
442	1	1	117.69628454337376	-6.635078036105647	326.97685704509325	0	0	0
443	1	1	118.5310099656672	-6.952728840716908	327.4266697124414	0	0	0
444	1	1	119.36573538796063	-6.722005046154988	327.9266697124414	0	0	0
445	1	1	120.20046081025406	-7.039655850766248	328.3764823797896	0	0	0
446	1	1	121.03518623254749	-6.808932056204328	328.8764823797896	0	0	0
447	1	1	121.86991165484092	-7.126582860815589	329.32629504713776	0	0	0
448	1	1	122.70463707713435	-6.895859066253668	329.82629504713776	0	0	0
449	1	1	123.53936249942778	-7.213509870864929	330.27610771448593	0	0	0
450	1	1	124.37408792172121	-6.982786076303008	330.77610771448593	0	0	0
451	1	1	125.20881334401464	-7.300436880914269	331.2259203818341	0	0	0
452	1	1	126.04353876630807	-7.0697130863523485	331.7259203818341	0	0	0
453	1	1	126.8782641886015	-7.387363890963609	332.17573304918227	0	0	0
454	1	1	127.71298961089494	-7.156640096401689	332.67573304918227	0	0	0
455	1	1	128.54771503318835	-7.4742909010129495	333.12554571653044	0	0	0
456	1	1	129.38244045548177	-7.243567106451029	333.62554571653044	0	0	0
457	1	1	130.2171658777752	-7.56121791106229	334.0753583838786	0	0	0
458	1	1	131.0518913000686	-7.330494116500369	334.5753583838786	0	0	0
459	1	1	131.88661672236202	-7.64814492111163	335.0251710512268	0	0	0
460	1	1	132.72134214465544	-7.417421126549709	335.5251710512268	0	0	0
461	1	1	133.55606756694885	-7.73507193116097	335.97498371857495	0	0	0
462	1	1	134.39079298924227	-7.50434813659905	336.47498371857495	0	0	0
463	1	1	135.2255184115357	-7.82199894121031	336.9247963859231	0	0	0
464	1	1	136.0602438338291	-7.59127514664839	337.4247963859231	0	0	0
465	1	1	136.89496925612252	-7.908925951259651	337.8746090532713	0	0	0
466	1	1	137.72969467841594	-7.67820215669773	338.3746090532713	0	0	0
467	1	1	138.56442010070936	-7.995852961308991	338.82442172061945	0	0	0
468	1	1	139.39914552300277	-7.76512916674707	339.32442172061945	0	0	0
469	1	1	140.2338709452962	-8.082779971358331	339.7742343879676	0	0	0
470	1	1	141.0685963675896	-7.8520561767964105	340.2742343879676	0	0	0
471	1	1	141.90332178988302	-8.169706981407671	340.7240470553158	0	0	0
472	1	1	142.73804721217644	-7.938983186845751	341.2240470553158	0	0	0
473	1	1	143.57277263446986	-8.256633991457011	341.67385972266396	0	0	0
474	1	1	144.40749805676327	-8.02591019689509	342.17385972266396	0	0	0
475	1	1	145.2422234790567	-8.343561001506352	342.62367239001213	0	0	0
476	1	1	146.0769489013501	-8.11283720694443	343.12367239001213	0	0	0
477	1	1	146.91167432364352	-8.430488011555692	343.5734850573603	0	0	0
478	1	1	147.74639974593694	-8.19976421699377	344.0734850573603	0	0	0
479	1	1	148.58112516823036	-8.517415021605032	344.52329772470847	0	0	0
480	1	1	149.41585059052377	-8.28669122704311	345.02329772470847	0	0	0
481	1	1	150.2505760128172	-8.604342031654372	345.47311039205664	0	0	0
482	1	1	151.0853014351106	-8.373618237092451	345.97311039205664	0	0	0
483	1	1	151.92002685740403	-8.691269041703713	346.4229230594048	0	0	0
484	1	1	152.75475227969744	-8.460545247141791	346.9229230594048	0	0	0
485	1	1	153.58947770199086	-8.778196051753053	347.372735726753	0	0	0
486	1	1	154.42420312428428	-8.547472257191131	347.872735726753	0	0	0
487	1	1	155.2589285465777	-8.865123061802393	348.32254839410115	0	0	0
488	1	1	156.0936539688711	-8.634399267240472	348.82254839410115	0	0	0
489	1	1	156.92837939116453	-8.952050071851733	349.2723610614493	0	0	0
490	1	1	157.76310481345794	-8.721326277289812	349.7723610614493	0	0	0
491	1	1	158.59783023575136	-9.038977081901074	350.2221737287975	0	0	0
492	1	1	159.43255565804478	-8.808253287339152	350.7221737287975	0	0	0
493	1	1	160.2672810803382	-9.125904091950414	351.17198639614566	0	0	0
494	1	1	161.1020065026316	-8.895180297388492	351.67198639614566	0	0	0
495	1	1	161.93673192492503	-9.212831101999754	352.1217990634938	0	0	0
496	1	1	162.77145734721844	-8.982107307437833	352.6217990634938	0	0	0
497	1	1	163.60618276951186	-9.299758112049094	353.071611730842	0	0	0
498	1	1	164.44090819180528	-9.069034317487173	353.571611730842	0	0	0
499	1	1	165.2756336140987	-9.386685122098434	354.02142439819016	0	0	0
500	1	1	166.1103590363921	-9.155961327536513	354.52142439819016	0	0	0
501	1	1	166.94508445868553	-9.473612132147775	354.97123706553833	0	0	0
502	1	1	167.77980988097895	-9.242888337585853	355.47123706553833	0	0	0
503	1	1	168.61453530327236	-9.560539142197115	355.9210497328865	0	0	0
504	1	1	169.44926072556578	-9.329815347635193	356.4210497328865	0	0	0
505	1	1	170.2839861478592	-9.647466152246455	356.87086240023467	0	0	0
506	1	1	171.1187115701526	-9.416742357684534	357.37086240023467	0	0	0
507	1	1	171.95343699244603	-9.734393162295795	357.82067506758284	0	0	0
508	1	1	172.78816241473945	-9.503669367733874	358.32067506758284	0	0	0
509	1	1	173.62288783703286	-9.821320172345136	358.770487734931	0	0	0
510	1	1	174.45761325932628	-9.590596377783214	359.270487734931	0	0	0
511	1	1	175.2923386816197	-9.908247182394476	359.7203004022792	0	0	0
512	1	1	176.1270641039131	-9.677523387832554	360.2203004022792	0	0	0
513	1	1	176.96178952620653	-9.995174192443816	360.67011306962735	0	0	0
514	1	1	177.79651494849995	-9.764450397881895	361.17011306962735	0	0	0
515	1	1	178.63124037079336	-10.082101202493156	361.6199257369755	0	0	0
516	1	1	179.46596579308678	-9.851377407931235	362.1199257369755	0	0	0
517	1	1	180.3006912153802	-10.169028212542496	362.5697384043237	0	0	0
518	1	1	181.13541663767361	-9.938304417980575	363.0697384043237	0	0	0