bb800nuc1bl400bn3d30tot1200V2

1201 atoms
1200 bonds
1200 angles

1 atom types
1 bond types
1 angle types

-1000 1000 xlo xhi
-1000 1000 ylo yhi
-1000 1000 zlo zhi

Masses

1 1

Atoms

1	1	1	0.0	0.0	0.0	0	0	0
2	1	1	0.0	0.0	1.0	0	0	0
3	1	1	0.0	-0.49999999999999994	1.8660254037844388	0	0	0
4	1	1	0.0	0.0	2.7320508075688776	0	0	0
5	1	1	0.0	-0.49999999999999994	3.5980762113533165	0	0	0
6	1	1	0.0	0.0	4.464101615137755	0	0	0
7	1	1	0.0	-0.49999999999999994	5.330127018922194	0	0	0
8	1	1	0.0	0.0	6.196152422706632	0	0	0
9	1	1	0.0	-0.49999999999999994	7.06217782649107	0	0	0
10	1	1	0.0	0.0	7.928203230275509	0	0	0
11	1	1	0.0	-0.49999999999999994	8.794228634059948	0	0	0
12	1	1	0.0	0.0	9.660254037844387	0	0	0
13	1	1	0.0	-0.49999999999999994	10.526279441628827	0	0	0
14	1	1	0.0	0.0	11.392304845413266	0	0	0
15	1	1	0.0	-0.49999999999999994	12.258330249197705	0	0	0
16	1	1	0.0	0.0	13.124355652982144	0	0	0
17	1	1	0.0	-0.49999999999999994	13.990381056766584	0	0	0
18	1	1	0.0	0.0	14.856406460551023	0	0	0
19	1	1	0.0	-0.49999999999999994	15.722431864335462	0	0	0
20	1	1	0.0	0.0	16.5884572681199	0	0	0
21	1	1	0.0	-0.49999999999999994	17.454482671904337	0	0	0
22	1	1	0.0	0.0	18.320508075688775	0	0	0
23	1	1	0.0	-0.49999999999999994	19.186533479473212	0	0	0
24	1	1	0.0	0.0	20.05255888325765	0	0	0
25	1	1	0.0	-0.49999999999999994	20.918584287042087	0	0	0
26	1	1	0.0	0.0	21.784609690826525	0	0	0
27	1	1	0.0	-0.49999999999999994	22.650635094610962	0	0	0
28	1	1	0.0	0.0	23.5166604983954	0	0	0
29	1	1	0.0	-0.49999999999999994	24.382685902179837	0	0	0
30	1	1	0.0	0.0	25.248711305964274	0	0	0
31	1	1	0.0	-0.49999999999999994	26.114736709748712	0	0	0
32	1	1	0.0	0.0	26.98076211353315	0	0	0
33	1	1	0.0	-0.49999999999999994	27.846787517317587	0	0	0
34	1	1	0.0	0.0	28.712812921102024	0	0	0
35	1	1	0.0	-0.49999999999999994	29.578838324886462	0	0	0
36	1	1	0.0	0.0	30.4448637286709	0	0	0
37	1	1	0.0	-0.49999999999999994	31.310889132455337	0	0	0
38	1	1	0.0	0.0	32.17691453623978	0	0	0
39	1	1	0.0	-0.49999999999999994	33.04293994002422	0	0	0
40	1	1	0.0	0.0	33.90896534380866	0	0	0
41	1	1	0.0	-0.49999999999999994	34.7749907475931	0	0	0
42	1	1	0.0	0.0	35.64101615137754	0	0	0
43	1	1	0.0	-0.49999999999999994	36.50704155516198	0	0	0
44	1	1	0.0	0.0	37.373066958946424	0	0	0
45	1	1	0.0	-0.49999999999999994	38.239092362730865	0	0	0
46	1	1	0.0	0.0	39.105117766515306	0	0	0
47	1	1	0.0	-0.49999999999999994	39.97114317029975	0	0	0
48	1	1	0.0	0.0	40.83716857408419	0	0	0
49	1	1	0.0	-0.49999999999999994	41.70319397786863	0	0	0
50	1	1	0.0	0.0	42.56921938165307	0	0	0
51	1	1	0.0	-0.49999999999999994	43.43524478543751	0	0	0
52	1	1	0.0	0.0	44.30127018922195	0	0	0
53	1	1	0.0	-0.49999999999999994	45.16729559300639	0	0	0
54	1	1	0.0	0.0	46.033320996790835	0	0	0
55	1	1	0.0	-0.49999999999999994	46.899346400575276	0	0	0
56	1	1	0.0	0.0	47.76537180435972	0	0	0
57	1	1	0.0	-0.49999999999999994	48.63139720814416	0	0	0
58	1	1	0.0	0.0	49.4974226119286	0	0	0
59	1	1	0.0	-0.49999999999999994	50.36344801571304	0	0	0
60	1	1	0.0	0.0	51.22947341949748	0	0	0
61	1	1	0.0	-0.49999999999999994	52.09549882328192	0	0	0
62	1	1	0.0	0.0	52.96152422706636	0	0	0
63	1	1	0.0	-0.49999999999999994	53.827549630850804	0	0	0
64	1	1	0.0	0.0	54.693575034635245	0	0	0
65	1	1	0.0	-0.49999999999999994	55.559600438419686	0	0	0
66	1	1	0.0	0.0	56.42562584220413	0	0	0
67	1	1	0.0	-0.49999999999999994	57.29165124598857	0	0	0
68	1	1	0.0	0.0	58.15767664977301	0	0	0
69	1	1	0.0	-0.49999999999999994	59.02370205355745	0	0	0
70	1	1	0.0	0.0	59.88972745734189	0	0	0
71	1	1	0.0	-0.49999999999999994	60.75575286112633	0	0	0
72	1	1	0.0	0.0	61.62177826491077	0	0	0
73	1	1	0.0	-0.49999999999999994	62.487803668695214	0	0	0
74	1	1	0.0	0.0	63.353829072479655	0	0	0
75	1	1	0.0	-0.49999999999999994	64.21985447626409	0	0	0
76	1	1	0.0	0.0	65.08587988004852	0	0	0
77	1	1	0.0	-0.49999999999999994	65.95190528383296	0	0	0
78	1	1	0.0	0.0	66.81793068761739	0	0	0
79	1	1	0.0	-0.49999999999999994	67.68395609140183	0	0	0
80	1	1	0.0	0.0	68.54998149518626	0	0	0
81	1	1	0.0	-0.49999999999999994	69.41600689897069	0	0	0
82	1	1	0.0	0.0	70.28203230275513	0	0	0
83	1	1	0.0	-0.49999999999999994	71.14805770653956	0	0	0
84	1	1	0.0	0.0	72.014083110324	0	0	0
85	1	1	0.0	-0.49999999999999994	72.88010851410843	0	0	0
86	1	1	0.0	0.0	73.74613391789286	0	0	0
87	1	1	0.0	-0.49999999999999994	74.6121593216773	0	0	0
88	1	1	0.0	0.0	75.47818472546173	0	0	0
89	1	1	0.0	-0.49999999999999994	76.34421012924616	0	0	0
90	1	1	0.0	0.0	77.2102355330306	0	0	0
91	1	1	0.0	-0.49999999999999994	78.07626093681503	0	0	0
92	1	1	0.0	0.0	78.94228634059947	0	0	0
93	1	1	0.0	-0.49999999999999994	79.8083117443839	0	0	0
94	1	1	0.0	0.0	80.67433714816833	0	0	0
95	1	1	0.0	-0.49999999999999994	81.54036255195277	0	0	0
96	1	1	0.0	0.0	82.4063879557372	0	0	0
97	1	1	0.0	-0.49999999999999994	83.27241335952164	0	0	0
98	1	1	0.0	0.0	84.13843876330607	0	0	0
99	1	1	0.0	-0.49999999999999994	85.0044641670905	0	0	0
100	1	1	0.0	0.0	85.87048957087494	0	0	0
101	1	1	0.0	-0.49999999999999994	86.73651497465937	0	0	0
102	1	1	0.0	0.0	87.6025403784438	0	0	0
103	1	1	0.0	-0.49999999999999994	88.46856578222824	0	0	0
104	1	1	0.0	0.0	89.33459118601267	0	0	0
105	1	1	0.0	-0.49999999999999994	90.20061658979711	0	0	0
106	1	1	0.0	0.0	91.06664199358154	0	0	0
107	1	1	0.0	-0.49999999999999994	91.93266739736598	0	0	0
108	1	1	0.0	0.0	92.79869280115041	0	0	0
109	1	1	0.0	-0.49999999999999994	93.66471820493484	0	0	0
110	1	1	0.0	0.0	94.53074360871928	0	0	0
111	1	1	0.0	-0.49999999999999994	95.39676901250371	0	0	0
112	1	1	0.0	0.0	96.26279441628814	0	0	0
113	1	1	0.0	-0.49999999999999994	97.12881982007258	0	0	0
114	1	1	0.0	0.0	97.99484522385701	0	0	0
115	1	1	0.0	-0.49999999999999994	98.86087062764145	0	0	0
116	1	1	0.0	0.0	99.72689603142588	0	0	0
117	1	1	0.0	-0.49999999999999994	100.59292143521031	0	0	0
118	1	1	0.0	0.0	101.45894683899475	0	0	0
119	1	1	0.0	-0.49999999999999994	102.32497224277918	0	0	0
120	1	1	0.0	0.0	103.19099764656362	0	0	0
121	1	1	0.0	-0.49999999999999994	104.05702305034805	0	0	0
122	1	1	0.0	0.0	104.92304845413248	0	0	0
123	1	1	0.0	-0.49999999999999994	105.78907385791692	0	0	0
124	1	1	0.0	0.0	106.65509926170135	0	0	0
125	1	1	0.0	-0.49999999999999994	107.52112466548579	0	0	0
126	1	1	0.0	0.0	108.38715006927022	0	0	0
127	1	1	0.0	-0.49999999999999994	109.25317547305465	0	0	0
128	1	1	0.0	0.0	110.11920087683909	0	0	0
129	1	1	0.0	-0.49999999999999994	110.98522628062352	0	0	0
130	1	1	0.0	0.0	111.85125168440796	0	0	0
131	1	1	0.0	-0.49999999999999994	112.71727708819239	0	0	0
132	1	1	0.0	0.0	113.58330249197682	0	0	0
133	1	1	0.0	-0.49999999999999994	114.44932789576126	0	0	0
134	1	1	0.0	0.0	115.31535329954569	0	0	0
135	1	1	0.0	-0.49999999999999994	116.18137870333013	0	0	0
136	1	1	0.0	0.0	117.04740410711456	0	0	0
137	1	1	0.0	-0.49999999999999994	117.913429510899	0	0	0
138	1	1	0.0	0.0	118.77945491468343	0	0	0
139	1	1	0.0	-0.49999999999999994	119.64548031846786	0	0	0
140	1	1	0.0	0.0	120.5115057222523	0	0	0
141	1	1	0.0	-0.49999999999999994	121.37753112603673	0	0	0
142	1	1	0.0	0.0	122.24355652982116	0	0	0
143	1	1	0.0	-0.49999999999999994	123.1095819336056	0	0	0
144	1	1	0.0	0.0	123.97560733739003	0	0	0
145	1	1	0.0	-0.49999999999999994	124.84163274117446	0	0	0
146	1	1	0.0	0.0	125.7076581449589	0	0	0
147	1	1	0.0	-0.49999999999999994	126.57368354874333	0	0	0
148	1	1	0.0	0.0	127.43970895252777	0	0	0
149	1	1	0.0	-0.49999999999999994	128.3057343563122	0	0	0
150	1	1	0.0	0.0	129.17175976009665	0	0	0
151	1	1	0.0	-0.49999999999999994	130.0377851638811	0	0	0
152	1	1	0.0	0.0	130.90381056766554	0	0	0
153	1	1	0.0	-0.49999999999999994	131.76983597145	0	0	0
154	1	1	0.0	0.0	132.63586137523444	0	0	0
155	1	1	0.0	-0.49999999999999994	133.5018867790189	0	0	0
156	1	1	0.0	0.0	134.36791218280334	0	0	0
157	1	1	0.0	-0.49999999999999994	135.23393758658779	0	0	0
158	1	1	0.0	0.0	136.09996299037223	0	0	0
159	1	1	0.0	-0.49999999999999994	136.96598839415668	0	0	0
160	1	1	0.0	0.0	137.83201379794113	0	0	0
161	1	1	0.0	-0.49999999999999994	138.69803920172558	0	0	0
162	1	1	0.0	0.0	139.56406460551003	0	0	0
163	1	1	0.0	-0.49999999999999994	140.43009000929447	0	0	0
164	1	1	0.0	0.0	141.29611541307892	0	0	0
165	1	1	0.0	-0.49999999999999994	142.16214081686337	0	0	0
166	1	1	0.0	0.0	143.02816622064782	0	0	0
167	1	1	0.0	-0.49999999999999994	143.89419162443227	0	0	0
168	1	1	0.0	0.0	144.76021702821672	0	0	0
169	1	1	0.0	-0.49999999999999994	145.62624243200116	0	0	0
170	1	1	0.0	0.0	146.4922678357856	0	0	0
171	1	1	0.0	-0.49999999999999994	147.35829323957006	0	0	0
172	1	1	0.0	0.0	148.2243186433545	0	0	0
173	1	1	0.0	-0.49999999999999994	149.09034404713896	0	0	0
174	1	1	0.0	0.0	149.9563694509234	0	0	0
175	1	1	0.0	-0.49999999999999994	150.82239485470785	0	0	0
176	1	1	0.0	0.0	151.6884202584923	0	0	0
177	1	1	0.0	-0.49999999999999994	152.55444566227675	0	0	0
178	1	1	0.0	0.0	153.4204710660612	0	0	0
179	1	1	0.0	-0.49999999999999994	154.28649646984564	0	0	0
180	1	1	0.0	0.0	155.1525218736301	0	0	0
181	1	1	0.0	-0.49999999999999994	156.01854727741454	0	0	0
182	1	1	0.0	0.0	156.884572681199	0	0	0
183	1	1	0.0	-0.49999999999999994	157.75059808498344	0	0	0
184	1	1	0.0	0.0	158.61662348876789	0	0	0
185	1	1	0.0	-0.49999999999999994	159.48264889255233	0	0	0
186	1	1	0.0	0.0	160.34867429633678	0	0	0
187	1	1	0.0	-0.49999999999999994	161.21469970012123	0	0	0
188	1	1	0.0	0.0	162.08072510390568	0	0	0
189	1	1	0.0	-0.49999999999999994	162.94675050769013	0	0	0
190	1	1	0.0	0.0	163.81277591147457	0	0	0
191	1	1	0.0	-0.49999999999999994	164.67880131525902	0	0	0
192	1	1	0.0	0.0	165.54482671904347	0	0	0
193	1	1	0.0	-0.49999999999999994	166.41085212282792	0	0	0
194	1	1	0.0	0.0	167.27687752661237	0	0	0
195	1	1	0.0	-0.49999999999999994	168.14290293039682	0	0	0
196	1	1	0.0	0.0	169.00892833418126	0	0	0
197	1	1	0.0	-0.49999999999999994	169.8749537379657	0	0	0
198	1	1	0.0	0.0	170.74097914175016	0	0	0
199	1	1	0.0	-0.49999999999999994	171.6070045455346	0	0	0
200	1	1	0.0	0.0	172.47302994931906	0	0	0
201	1	1	0.0	-0.49999999999999994	173.3390553531035	0	0	0
202	1	1	0.0	0.0	174.20508075688795	0	0	0
203	1	1	0.0	-0.49999999999999994	175.0711061606724	0	0	0
204	1	1	0.0	0.0	175.93713156445685	0	0	0
205	1	1	0.0	-0.49999999999999994	176.8031569682413	0	0	0
206	1	1	0.0	0.0	177.66918237202574	0	0	0
207	1	1	0.0	-0.49999999999999994	178.5352077758102	0	0	0
208	1	1	0.0	0.0	179.40123317959464	0	0	0
209	1	1	0.0	-0.49999999999999994	180.2672585833791	0	0	0
210	1	1	0.0	0.0	181.13328398716354	0	0	0
211	1	1	0.0	-0.49999999999999994	181.99930939094799	0	0	0
212	1	1	0.0	0.0	182.86533479473243	0	0	0
213	1	1	0.0	-0.49999999999999994	183.73136019851688	0	0	0
214	1	1	0.0	0.0	184.59738560230133	0	0	0
215	1	1	0.0	-0.49999999999999994	185.46341100608578	0	0	0
216	1	1	0.0	0.0	186.32943640987023	0	0	0
217	1	1	0.0	-0.49999999999999994	187.19546181365467	0	0	0
218	1	1	0.0	0.0	188.06148721743912	0	0	0
219	1	1	0.0	-0.49999999999999994	188.92751262122357	0	0	0
220	1	1	0.0	0.0	189.79353802500802	0	0	0
221	1	1	0.0	-0.49999999999999994	190.65956342879247	0	0	0
222	1	1	0.0	0.0	191.52558883257691	0	0	0
223	1	1	0.0	-0.49999999999999994	192.39161423636136	0	0	0
224	1	1	0.0	0.0	193.2576396401458	0	0	0
225	1	1	0.0	-0.49999999999999994	194.12366504393026	0	0	0
226	1	1	0.0	0.0	194.9896904477147	0	0	0
227	1	1	0.0	-0.49999999999999994	195.85571585149916	0	0	0
228	1	1	0.0	0.0	196.7217412552836	0	0	0
229	1	1	0.0	-0.49999999999999994	197.58776665906805	0	0	0
230	1	1	0.0	0.0	198.4537920628525	0	0	0
231	1	1	0.0	-0.49999999999999994	199.31981746663695	0	0	0
232	1	1	0.0	0.0	200.1858428704214	0	0	0
233	1	1	0.0	-0.49999999999999994	201.05186827420584	0	0	0
234	1	1	0.0	0.0	201.9178936779903	0	0	0
235	1	1	0.0	-0.49999999999999994	202.78391908177474	0	0	0
236	1	1	0.0	0.0	203.6499444855592	0	0	0
237	1	1	0.0	-0.49999999999999994	204.51596988934364	0	0	0
238	1	1	0.0	0.0	205.38199529312809	0	0	0
239	1	1	0.0	-0.49999999999999994	206.24802069691253	0	0	0
240	1	1	0.0	0.0	207.11404610069698	0	0	0
241	1	1	0.0	-0.49999999999999994	207.98007150448143	0	0	0
242	1	1	0.0	0.0	208.84609690826588	0	0	0
243	1	1	0.0	-0.49999999999999994	209.71212231205033	0	0	0
244	1	1	0.0	0.0	210.57814771583477	0	0	0
245	1	1	0.0	-0.49999999999999994	211.44417311961922	0	0	0
246	1	1	0.0	0.0	212.31019852340367	0	0	0
247	1	1	0.0	-0.49999999999999994	213.17622392718812	0	0	0
248	1	1	0.0	0.0	214.04224933097257	0	0	0
249	1	1	0.0	-0.49999999999999994	214.90827473475701	0	0	0
250	1	1	0.0	0.0	215.77430013854146	0	0	0
251	1	1	0.0	-0.49999999999999994	216.6403255423259	0	0	0
252	1	1	0.0	0.0	217.50635094611036	0	0	0
253	1	1	0.0	-0.49999999999999994	218.3723763498948	0	0	0
254	1	1	0.0	0.0	219.23840175367926	0	0	0
255	1	1	0.0	-0.49999999999999994	220.1044271574637	0	0	0
256	1	1	0.0	0.0	220.97045256124815	0	0	0
257	1	1	0.0	-0.49999999999999994	221.8364779650326	0	0	0
258	1	1	0.0	0.0	222.70250336881705	0	0	0
259	1	1	0.0	-0.49999999999999994	223.5685287726015	0	0	0
260	1	1	0.0	0.0	224.43455417638594	0	0	0
261	1	1	0.0	-0.49999999999999994	225.3005795801704	0	0	0
262	1	1	0.0	0.0	226.16660498395484	0	0	0
263	1	1	0.0	-0.49999999999999994	227.0326303877393	0	0	0
264	1	1	0.0	0.0	227.89865579152374	0	0	0
265	1	1	0.0	-0.49999999999999994	228.76468119530819	0	0	0
266	1	1	0.0	0.0	229.63070659909263	0	0	0
267	1	1	0.0	-0.49999999999999994	230.49673200287708	0	0	0
268	1	1	0.0	0.0	231.36275740666153	0	0	0
269	1	1	0.0	-0.49999999999999994	232.22878281044598	0	0	0
270	1	1	0.0	0.0	233.09480821423043	0	0	0
271	1	1	0.0	-0.49999999999999994	233.96083361801487	0	0	0
272	1	1	0.0	0.0	234.82685902179932	0	0	0
273	1	1	0.0	-0.49999999999999994	235.69288442558377	0	0	0
274	1	1	0.0	0.0	236.55890982936822	0	0	0
275	1	1	0.0	-0.49999999999999994	237.42493523315267	0	0	0
276	1	1	0.0	0.0	238.29096063693711	0	0	0
277	1	1	0.0	-0.49999999999999994	239.15698604072156	0	0	0
278	1	1	0.0	0.0	240.023011444506	0	0	0
279	1	1	0.0	-0.49999999999999994	240.88903684829046	0	0	0
280	1	1	0.0	0.0	241.7550622520749	0	0	0
281	1	1	0.0	-0.49999999999999994	242.62108765585936	0	0	0
282	1	1	0.0	0.0	243.4871130596438	0	0	0
283	1	1	0.0	-0.49999999999999994	244.35313846342825	0	0	0
284	1	1	0.0	0.0	245.2191638672127	0	0	0
285	1	1	0.0	-0.49999999999999994	246.08518927099715	0	0	0
286	1	1	0.0	0.0	246.9512146747816	0	0	0
287	1	1	0.0	-0.49999999999999994	247.81724007856604	0	0	0
288	1	1	0.0	0.0	248.6832654823505	0	0	0
289	1	1	0.0	-0.49999999999999994	249.54929088613494	0	0	0
290	1	1	0.0	0.0	250.4153162899194	0	0	0
291	1	1	0.0	-0.49999999999999994	251.28134169370384	0	0	0
292	1	1	0.0	0.0	252.14736709748829	0	0	0
293	1	1	0.0	-0.49999999999999994	253.01339250127273	0	0	0
294	1	1	0.0	0.0	253.87941790505718	0	0	0
295	1	1	0.0	-0.49999999999999994	254.74544330884163	0	0	0
296	1	1	0.0	0.0	255.61146871262608	0	0	0
297	1	1	0.0	-0.49999999999999994	256.4774941164105	0	0	0
298	1	1	0.0	0.0	257.34351952019495	0	0	0
299	1	1	0.0	-0.49999999999999994	258.20954492397937	0	0	0
300	1	1	0.0	0.0	259.0755703277638	0	0	0
301	1	1	0.0	-0.49999999999999994	259.9415957315482	0	0	0
302	1	1	0.0	0.0	260.8076211353326	0	0	0
303	1	1	0.0	-0.49999999999999994	261.67364653911704	0	0	0
304	1	1	0.0	0.0	262.53967194290146	0	0	0
305	1	1	0.0	-0.49999999999999994	263.4056973466859	0	0	0
306	1	1	0.0	0.0	264.2717227504703	0	0	0
307	1	1	0.0	-0.49999999999999994	265.1377481542547	0	0	0
308	1	1	0.0	0.0	266.00377355803914	0	0	0
309	1	1	0.0	-0.49999999999999994	266.86979896182356	0	0	0
310	1	1	0.0	0.0	267.735824365608	0	0	0
311	1	1	0.0	-0.49999999999999994	268.6018497693924	0	0	0
312	1	1	0.0	0.0	269.4678751731768	0	0	0
313	1	1	0.0	-0.49999999999999994	270.33390057696124	0	0	0
314	1	1	0.0	0.0	271.19992598074566	0	0	0
315	1	1	0.0	-0.49999999999999994	272.0659513845301	0	0	0
316	1	1	0.0	0.0	272.9319767883145	0	0	0
317	1	1	0.0	-0.49999999999999994	273.7980021920989	0	0	0
318	1	1	0.0	0.0	274.66402759588334	0	0	0
319	1	1	0.0	-0.49999999999999994	275.53005299966776	0	0	0
320	1	1	0.0	0.0	276.3960784034522	0	0	0
321	1	1	0.0	-0.49999999999999994	277.2621038072366	0	0	0
322	1	1	0.0	0.0	278.128129211021	0	0	0
323	1	1	0.0	-0.49999999999999994	278.99415461480544	0	0	0
324	1	1	0.0	0.0	279.86018001858986	0	0	0
325	1	1	0.0	-0.49999999999999994	280.7262054223743	0	0	0
326	1	1	0.0	0.0	281.5922308261587	0	0	0
327	1	1	0.0	-0.49999999999999994	282.4582562299431	0	0	0
328	1	1	0.0	0.0	283.32428163372754	0	0	0
329	1	1	0.0	-0.49999999999999994	284.19030703751196	0	0	0
330	1	1	0.0	0.0	285.0563324412964	0	0	0
331	1	1	0.0	-0.49999999999999994	285.9223578450808	0	0	0
332	1	1	0.0	0.0	286.7883832488652	0	0	0
333	1	1	0.0	-0.49999999999999994	287.65440865264964	0	0	0
334	1	1	0.0	0.0	288.52043405643406	0	0	0
335	1	1	0.0	-0.49999999999999994	289.3864594602185	0	0	0
336	1	1	0.0	0.0	290.2524848640029	0	0	0
337	1	1	0.0	-0.49999999999999994	291.1185102677873	0	0	0
338	1	1	0.0	0.0	291.98453567157173	0	0	0
339	1	1	0.0	-0.49999999999999994	292.85056107535615	0	0	0
340	1	1	0.0	0.0	293.7165864791406	0	0	0
341	1	1	0.0	-0.49999999999999994	294.582611882925	0	0	0
342	1	1	0.0	0.0	295.4486372867094	0	0	0
343	1	1	0.0	-0.49999999999999994	296.31466269049383	0	0	0
344	1	1	0.0	0.0	297.18068809427825	0	0	0
345	1	1	0.0	-0.49999999999999994	298.0467134980627	0	0	0
346	1	1	0.0	0.0	298.9127389018471	0	0	0
347	1	1	0.0	-0.49999999999999994	299.7787643056315	0	0	0
348	1	1	0.0	0.0	300.64478970941593	0	0	0
349	1	1	0.0	-0.49999999999999994	301.51081511320035	0	0	0
350	1	1	0.0	0.0	302.37684051698477	0	0	0
351	1	1	0.0	-0.49999999999999994	303.2428659207692	0	0	0
352	1	1	0.0	0.0	304.1088913245536	0	0	0
353	1	1	0.0	-0.49999999999999994	304.97491672833803	0	0	0
354	1	1	0.0	0.0	305.84094213212245	0	0	0
355	1	1	0.0	-0.49999999999999994	306.70696753590687	0	0	0
356	1	1	0.0	0.0	307.5729929396913	0	0	0
357	1	1	0.0	-0.49999999999999994	308.4390183434757	0	0	0
358	1	1	0.0	0.0	309.30504374726013	0	0	0
359	1	1	0.0	-0.49999999999999994	310.17106915104455	0	0	0
360	1	1	0.0	0.0	311.03709455482897	0	0	0
361	1	1	0.0	-0.49999999999999994	311.9031199586134	0	0	0
362	1	1	0.0	0.0	312.7691453623978	0	0	0
363	1	1	0.0	-0.49999999999999994	313.6351707661822	0	0	0
364	1	1	0.0	0.0	314.50119616996665	0	0	0
365	1	1	0.0	-0.49999999999999994	315.36722157375107	0	0	0
366	1	1	0.0	0.0	316.2332469775355	0	0	0
367	1	1	0.0	-0.49999999999999994	317.0992723813199	0	0	0
368	1	1	0.0	0.0	317.9652977851043	0	0	0
369	1	1	0.0	-0.49999999999999994	318.83132318888875	0	0	0
370	1	1	0.0	0.0	319.69734859267317	0	0	0
371	1	1	0.0	-0.49999999999999994	320.5633739964576	0	0	0
372	1	1	0.0	0.0	321.429399400242	0	0	0
373	1	1	0.0	-0.49999999999999994	322.2954248040264	0	0	0
374	1	1	0.0	0.0	323.16145020781084	0	0	0
375	1	1	0.0	-0.49999999999999994	324.02747561159526	0	0	0
376	1	1	0.0	0.0	324.8935010153797	0	0	0
377	1	1	0.0	-0.49999999999999994	325.7595264191641	0	0	0
378	1	1	0.0	0.0	326.6255518229485	0	0	0
379	1	1	0.0	-0.49999999999999994	327.49157722673294	0	0	0
380	1	1	0.0	0.0	328.35760263051736	0	0	0
381	1	1	0.0	-0.49999999999999994	329.2236280343018	0	0	0
382	1	1	0.0	0.0	330.0896534380862	0	0	0
383	1	1	0.0	-0.49999999999999994	330.9556788418706	0	0	0
384	1	1	0.0	0.0	331.82170424565504	0	0	0
385	1	1	0.0	-0.49999999999999994	332.68772964943946	0	0	0
386	1	1	0.0	0.0	333.5537550532239	0	0	0
387	1	1	0.0	-0.49999999999999994	334.4197804570083	0	0	0
388	1	1	0.0	0.0	335.2858058607927	0	0	0
389	1	1	0.0	-0.49999999999999994	336.15183126457714	0	0	0
390	1	1	0.0	0.0	337.01785666836156	0	0	0
391	1	1	0.0	-0.49999999999999994	337.883882072146	0	0	0
392	1	1	0.0	0.0	338.7499074759304	0	0	0
393	1	1	0.0	-0.49999999999999994	339.6159328797148	0	0	0
394	1	1	0.0	0.0	340.48195828349924	0	0	0
395	1	1	0.0	-0.49999999999999994	341.34798368728366	0	0	0
396	1	1	0.0	0.0	342.2140090910681	0	0	0
397	1	1	0.0	-0.49999999999999994	343.0800344948525	0	0	0
398	1	1	0.0	0.0	343.9460598986369	0	0	0
399	1	1	0.0	-0.49999999999999994	344.81208530242134	0	0	0
400	1	1	0.0	0.0	345.67811070620576	0	0	0
401	1	1	0.0	-0.49999999999999994	346.5441361099902	0	0	0
402	1	1	-0.8445096954501058	-0.916140093650083	346.8812277840903	0	0	0
403	1	1	-1.6890193909002256	-1.4450738233343703	346.9650876904402	0	0	0
404	1	1	-2.5335290863503452	-1.6369158789185096	347.4650876904402	0	0	0
405	1	1	-3.378038781800465	-2.1658496086027967	347.54894759679013	0	0	0
406	1	1	-4.222548477250585	-2.357691664186936	348.04894759679013	0	0	0
407	1	1	-5.067058172700705	-2.886625393871223	348.13280750314004	0	0	0
408	1	1	-5.911567868150825	-3.0784674494553625	348.63280750314004	0	0	0
409	1	1	-6.756077563600945	-3.6074011791396496	348.71666740948996	0	0	0
410	1	1	-7.600587259051065	-3.799243234723789	349.21666740948996	0	0	0
411	1	1	-8.445096954501185	-4.328176964408076	349.3005273158399	0	0	0
412	1	1	-9.289606649951304	-4.5200190199922154	349.8005273158399	0	0	0
413	1	1	-10.134116345401424	-5.048952749676503	349.8843872221898	0	0	0
414	1	1	-10.978626040851543	-5.240794805260642	350.3843872221898	0	0	0
415	1	1	-11.823135736301662	-5.76972853494493	350.4682471285397	0	0	0
416	1	1	-12.667645431751781	-5.961570590529069	350.9682471285397	0	0	0
417	1	1	-13.5121551272019	-6.490504320213357	351.0521070348896	0	0	0
418	1	1	-14.35666482265202	-6.682346375797496	351.5521070348896	0	0	0
419	1	1	-15.201174518102139	-7.211280105481784	351.63596694123953	0	0	0
420	1	1	-16.04568421355226	-7.403122161065923	352.13596694123953	0	0	0
421	1	1	-16.89019390900238	-7.932055890750211	352.21982684758945	0	0	0
422	1	1	-17.734703604452502	-8.123897946334349	352.71982684758945	0	0	0
423	1	1	-18.579213299902623	-8.652831676018636	352.80368675393936	0	0	0
424	1	1	-19.423722995352744	-8.844673731602775	353.30368675393936	0	0	0
425	1	1	-20.268232690802865	-9.373607461287062	353.3875466602893	0	0	0
426	1	1	-21.112742386252986	-9.565449516871201	353.8875466602893	0	0	0
427	1	1	-21.957252081703107	-10.094383246555488	353.9714065666392	0	0	0
428	1	1	-22.801761777153228	-10.286225302139627	354.4714065666392	0	0	0
429	1	1	-23.64627147260335	-10.815159031823914	354.5552664729891	0	0	0
430	1	1	-24.49078116805347	-11.007001087408053	355.0552664729891	0	0	0
431	1	1	-25.33529086350359	-11.53593481709234	355.139126379339	0	0	0
432	1	1	-26.179800558953712	-11.727776872676479	355.639126379339	0	0	0
433	1	1	-27.024310254403833	-12.256710602360766	355.72298628568893	0	0	0
434	1	1	-27.868819949853954	-12.448552657944905	356.22298628568893	0	0	0
435	1	1	-28.713329645304075	-12.977486387629192	356.30684619203885	0	0	0
436	1	1	-29.557839340754196	-13.169328443213331	356.80684619203885	0	0	0
437	1	1	-30.402349036204317	-13.698262172897618	356.89070609838876	0	0	0
438	1	1	-31.246858731654438	-13.890104228481757	357.39070609838876	0	0	0
439	1	1	-32.091368427104555	-14.419037958166044	357.4745660047387	0	0	0
440	1	1	-32.935878122554676	-14.610880013750183	357.9745660047387	0	0	0
441	1	1	-33.7803878180048	-15.13981374343447	358.0584259110886	0	0	0
442	1	1	-34.62489751345492	-15.331655799018609	358.5584259110886	0	0	0
443	1	1	-35.46940720890504	-15.860589528702896	358.6422858174385	0	0	0
444	1	1	-36.31391690435516	-16.052431584287035	359.1422858174385	0	0	0
445	1	1	-37.15842659980528	-16.58136531397132	359.2261457237884	0	0	0
446	1	1	-38.0029362952554	-16.77320736955546	359.7261457237884	0	0	0
447	1	1	-38.84744599070552	-17.302141099239748	359.81000563013833	0	0	0
448	1	1	-39.691955686155644	-17.493983154823887	360.31000563013833	0	0	0
449	1	1	-40.536465381605765	-18.022916884508174	360.39386553648825	0	0	0
450	1	1	-41.380975077055886	-18.214758940092313	360.89386553648825	0	0	0
451	1	1	-42.22548477250601	-18.7436926697766	360.97772544283816	0	0	0
452	1	1	-43.06999446795613	-18.93553472536074	361.47772544283816	0	0	0
453	1	1	-43.91450416340625	-19.464468455045026	361.5615853491881	0	0	0
454	1	1	-44.75901385885637	-19.656310510629165	362.0615853491881	0	0	0
455	1	1	-45.60352355430649	-20.18524424031345	362.145445255538	0	0	0
456	1	1	-46.44803324975661	-20.37708629589759	362.645445255538	0	0	0
457	1	1	-47.29254294520673	-20.906020025581878	362.7293051618879	0	0	0
458	1	1	-48.137052640656854	-21.097862081166017	363.2293051618879	0	0	0
459	1	1	-48.981562336106975	-21.626795810850304	363.3131650682378	0	0	0
460	1	1	-49.826072031557096	-21.818637866434443	363.8131650682378	0	0	0
461	1	1	-50.67058172700722	-22.34757159611873	363.89702497458774	0	0	0
462	1	1	-51.51509142245734	-22.53941365170287	364.39702497458774	0	0	0
463	1	1	-52.35960111790746	-23.068347381387156	364.48088488093765	0	0	0
464	1	1	-53.20411081335758	-23.260189436971295	364.98088488093765	0	0	0
465	1	1	-54.0486205088077	-23.789123166655582	365.06474478728757	0	0	0
466	1	1	-54.89313020425782	-23.98096522223972	365.56474478728757	0	0	0
467	1	1	-55.73763989970794	-24.509898951924008	365.6486046936375	0	0	0
468	1	1	-56.582149595158064	-24.701741007508147	366.1486046936375	0	0	0
469	1	1	-57.426659290608185	-25.230674737192434	366.2324645999874	0	0	0
470	1	1	-58.271168986058306	-25.422516792776573	366.7324645999874	0	0	0
471	1	1	-59.11567868150843	-25.95145052246086	366.8163245063373	0	0	0
472	1	1	-59.96018837695855	-26.143292578045	367.3163245063373	0	0	0
473	1	1	-60.80469807240867	-26.672226307729286	367.4001844126872	0	0	0
474	1	1	-61.64920776785879	-26.864068363313425	367.9001844126872	0	0	0
475	1	1	-62.49371746330891	-27.393002092997712	367.98404431903714	0	0	0
476	1	1	-63.33822715875903	-27.58484414858185	368.48404431903714	0	0	0
477	1	1	-64.18273685420915	-28.113777878266138	368.56790422538705	0	0	0
478	1	1	-65.02724654965927	-28.305619933850277	369.06790422538705	0	0	0
479	1	1	-65.87175624510938	-28.834553663534564	369.15176413173697	0	0	0
480	1	1	-66.7162659405595	-29.026395719118703	369.65176413173697	0	0	0
481	1	1	-67.56077563600961	-29.55532944880299	369.7356240380869	0	0	0
482	1	1	-68.40528533145972	-29.74717150438713	370.2356240380869	0	0	0
483	1	1	-69.24979502690984	-30.276105234071416	370.3194839444368	0	0	0
484	1	1	-70.09430472235995	-30.467947289655555	370.8194839444368	0	0	0
485	1	1	-70.93881441781006	-30.996881019339842	370.9033438507867	0	0	0
486	1	1	-71.78332411326018	-31.18872307492398	371.4033438507867	0	0	0
487	1	1	-72.62783380871029	-31.717656804608268	371.4872037571366	0	0	0
488	1	1	-73.4723435041604	-31.909498860192407	371.9872037571366	0	0	0
489	1	1	-74.31685319961052	-32.4384325898767	372.07106366348654	0	0	0
490	1	1	-75.16136289506063	-32.63027464546084	372.57106366348654	0	0	0
491	1	1	-76.00587259051075	-33.15920837514513	372.65492356983646	0	0	0
492	1	1	-76.85038228596086	-33.351050430729266	373.15492356983646	0	0	0
493	1	1	-77.69489198141098	-33.87998416041356	373.23878347618637	0	0	0
494	1	1	-78.53940167686109	-34.071826215997696	373.73878347618637	0	0	0
495	1	1	-79.3839113723112	-34.600759945681986	373.8226433825363	0	0	0
496	1	1	-80.22842106776132	-34.792602001266125	374.3226433825363	0	0	0
497	1	1	-81.07293076321143	-35.321535730950416	374.4065032888862	0	0	0
498	1	1	-81.91744045866155	-35.513377786534555	374.9065032888862	0	0	0
499	1	1	-82.76195015411166	-36.042311516218845	374.9903631952361	0	0	0
500	1	1	-83.60645984956177	-36.234153571802985	375.4903631952361	0	0	0
501	1	1	-84.45096954501189	-36.763087301487275	375.574223101586	0	0	0
502	1	1	-85.295479240462	-36.954929357071414	376.074223101586	0	0	0
503	1	1	-86.13998893591211	-37.483863086755704	376.15808300793594	0	0	0
504	1	1	-86.98449863136223	-37.675705142339844	376.65808300793594	0	0	0
505	1	1	-87.82900832681234	-38.204638872024134	376.74194291428586	0	0	0
506	1	1	-88.67351802226246	-38.39648092760827	377.24194291428586	0	0	0
507	1	1	-89.51802771771257	-38.92541465729256	377.3258028206358	0	0	0
508	1	1	-90.36253741316268	-39.1172567128767	377.8258028206358	0	0	0
509	1	1	-91.2070471086128	-39.64619044256099	377.9096627269857	0	0	0
510	1	1	-92.05155680406291	-39.83803249814513	378.4096627269857	0	0	0
511	1	1	-92.89606649951303	-40.36696622782942	378.4935226333356	0	0	0
512	1	1	-93.74057619496314	-40.55880828341356	378.9935226333356	0	0	0
513	1	1	-94.58508589041325	-41.08774201309785	379.0773825396855	0	0	0
514	1	1	-95.42959558586337	-41.27958406868199	379.5773825396855	0	0	0
515	1	1	-96.27410528131348	-41.80851779836628	379.66124244603543	0	0	0
516	1	1	-97.1186149767636	-42.00035985395042	380.16124244603543	0	0	0
517	1	1	-97.96312467221371	-42.52929358363471	380.24510235238535	0	0	0
518	1	1	-98.80763436766382	-42.72113563921885	380.74510235238535	0	0	0
519	1	1	-99.65214406311394	-43.25006936890314	380.82896225873526	0	0	0
520	1	1	-100.49665375856405	-43.44191142448728	381.32896225873526	0	0	0
521	1	1	-101.34116345401416	-43.97084515417157	381.4128221650852	0	0	0
522	1	1	-102.18567314946428	-44.16268720975571	381.9128221650852	0	0	0
523	1	1	-103.03018284491439	-44.69162093944	381.9966820714351	0	0	0
524	1	1	-103.8746925403645	-44.88346299502414	382.4966820714351	0	0	0
525	1	1	-104.71920223581462	-45.41239672470843	382.580541977785	0	0	0
526	1	1	-105.56371193126473	-45.60423878029257	383.080541977785	0	0	0
527	1	1	-106.40822162671485	-46.13317250997686	383.1644018841349	0	0	0
528	1	1	-107.25273132216496	-46.325014565561	383.6644018841349	0	0	0
529	1	1	-108.09724101761508	-46.85394829524529	383.74826179048483	0	0	0
530	1	1	-108.94175071306519	-47.04579035082943	384.24826179048483	0	0	0
531	1	1	-109.7862604085153	-47.57472408051372	384.33212169683475	0	0	0
532	1	1	-110.63077010396542	-47.76656613609786	384.83212169683475	0	0	0
533	1	1	-111.47527979941553	-48.29549986578215	384.91598160318466	0	0	0
534	1	1	-112.31978949486565	-48.48734192136629	385.41598160318466	0	0	0
535	1	1	-113.16429919031576	-49.01627565105058	385.4998415095346	0	0	0
536	1	1	-114.00880888576587	-49.20811770663472	385.9998415095346	0	0	0
537	1	1	-114.85331858121599	-49.73705143631901	386.0837014158845	0	0	0
538	1	1	-115.6978282766661	-49.928893491903146	386.5837014158845	0	0	0
539	1	1	-116.54233797211621	-50.457827221587436	386.6675613222344	0	0	0
540	1	1	-117.38684766756633	-50.649669277171576	387.1675613222344	0	0	0
541	1	1	-118.23135736301644	-51.178603006855866	387.2514212285843	0	0	0
542	1	1	-119.07586705846656	-51.370445062440005	387.7514212285843	0	0	0
543	1	1	-119.92037675391667	-51.899378792124296	387.83528113493423	0	0	0
544	1	1	-120.76488644936678	-52.091220847708435	388.33528113493423	0	0	0
545	1	1	-121.6093961448169	-52.620154577392725	388.41914104128415	0	0	0
546	1	1	-122.45390584026701	-52.811996632976864	388.91914104128415	0	0	0