ITEM: TIMESTEP
0
ITEM: NUMBER OF ATOMS
101
ITEM: BOX BOUNDS pp pp pp
-1.0000000000000000e+03 1.0000000000000000e+03
-1.0000000000000000e+03 1.0000000000000000e+03
-1.0000000000000000e+03 1.0000000000000000e+03
ITEM: ATOMS id x y z ix iy iz
1 0.00000 0.00000 0.00000 0 0 0
2 0.00000 0.00000 1.00000 0 0 0
3 0.00000 -0.50000 1.86603 0 0 0
4 0.00000 0.00000 2.73205 0 0 0
5 0.00000 -0.50000 3.59808 0 0 0
6 0.94263 -0.66366 3.88904 0 0 0
7 1.88527 -0.95087 4.05919 0 0 0
8 2.82790 -0.94712 4.39299 0 0 0
9 3.77054 -1.23433 4.56314 0 0 0
10 -0.46807 -1.37550 3.47805 0 0 0
11 -0.93614 -2.07370 2.93636 0 0 0
12 -1.40421 -2.89192 3.27016 0 0 0
13 -1.87228 -3.59011 2.72847 0 0 0
14 -0.47456 0.03845 4.29440 0 0 0
15 -0.94913 0.15660 5.16665 0 0 0
16 -1.42369 0.97107 5.50046 0 0 0
17 -1.89826 1.08922 6.37271 0 0 0
18 -1.65907 1.97731 6.76525 0 0 0
19 -1.41988 2.55015 7.54924 0 0 0
20 -1.18069 3.51553 7.44513 0 0 0
21 -0.94150 4.08837 8.22912 0 0 0
22 -1.62477 0.36233 7.00266 0 0 0
23 -1.35129 -0.58216 7.18476 0 0 0
24 -1.07781 -0.89669 8.09376 0 0 0
25 -0.80432 -1.84117 8.27586 0 0 0
26 -2.88616 1.04634 6.22373 0 0 0
27 -3.87407 1.08370 6.07327 0 0 0
28 -4.86198 0.97207 5.96568 0 0 0
29 -5.84989 1.00943 5.81522 0 0 0
30 -6.25622 1.68362 6.43195 0 0 0
31 -6.66255 1.95912 7.30315 0 0 0
32 -7.06888 2.85136 7.50016 0 0 0
33 -7.47521 3.12686 8.37136 0 0 0
34 -6.24919 0.11044 5.99517 0 0 0
35 -6.64848 -0.75809 5.70153 0 0 0
36 -7.04778 -1.44665 6.30687 0 0 0
37 -7.44708 -2.31518 6.01322 0 0 0
38 -6.03358 1.27163 4.86785 0 0 0
39 -6.21727 1.97239 4.17850 0 0 0
40 -6.40095 1.72578 3.22696 0 0 0
41 -6.58464 2.42654 2.53761 0 0 0
42 -5.74474 2.62684 2.03318 0 0 0
43 -4.90484 3.05251 1.69648 0 0 0
44 -4.06494 2.97376 1.15948 0 0 0
45 -3.22504 3.39943 0.82277 0 0 0
46 -6.91001 3.25893 2.98624 0 0 0
47 -7.23538 3.75548 3.79096 0 0 0
48 -7.56075 4.70066 3.76330 0 0 0
49 -7.88612 5.19721 4.56802 0 0 0
50 -7.28312 2.09562 1.90309 0 0 0
51 -7.98160 2.12629 1.18812 0 0 0
52 -8.68007 1.52244 0.80407 0 0 0
53 -9.37855 1.55311 0.08909 0 0 0
54 -9.24880 2.37242 -0.46939 0 0 0
55 -9.11906 3.36120 -0.54340 0 0 0
56 -8.98931 3.79150 -1.43671 0 0 0
57 -8.85957 4.78028 -1.51072 0 0 0
58 -10.28563 1.57698 0.50938 0 0 0
59 -11.19270 1.38751 0.88530 0 0 0
60 -12.09978 1.61832 1.23735 0 0 0
61 -13.00685 1.42885 1.61326 0 0 0
62 -9.30069 0.74066 -0.48871 0 0 0
63 -9.22283 0.32595 -1.39532 0 0 0
64 -9.14497 -0.66656 -1.48948 0 0 0
65 -9.06711 -1.08127 -2.39610 0 0 0
66 -8.89551 -2.06184 -2.30101 0 0 0
67 -8.72391 -2.95858 -2.70895 0 0 0
68 -8.55231 -3.76023 -2.13632 0 0 0
69 -8.38070 -4.65697 -2.54426 0 0 0
70 -8.30989 -0.65749 -2.89310 0 0 0
71 -7.55266 -0.04199 -3.11164 0 0 0
72 -6.79543 0.07651 -3.75395 0 0 0
73 -6.03820 0.69202 -3.97248 0 0 0
74 -9.91797 -0.93978 -2.90208 0 0 0
75 -10.76884 -0.56426 -3.26953 0 0 0
76 -11.61970 -0.69472 -3.77846 0 0 0
77 -12.47056 -0.31920 -4.14591 0 0 0
78 -12.33989 0.64659 -4.36992 0 0 0
79 -12.20922 1.59499 -4.08103 0 0 0
80 -12.07855 2.31938 -4.75792 0 0 0
81 -11.94788 3.26778 -4.46903 0 0 0
82 -13.19641 -0.40742 -3.46374 0 0 0
83 -13.92226 -0.82490 -2.91707 0 0 0
84 -14.64811 -0.56021 -2.28218 0 0 0
85 -15.37396 -0.97770 -1.73552 0 0 0
86 -12.72744 -0.82071 -4.97204 0 0 0
87 -12.98433 -0.84197 -5.93825 0 0 0
88 -13.24122 -1.68936 -6.40295 0 0 0
89 -13.49811 -1.71061 -7.36915 0 0 0
90 -13.73886 -2.64547 -7.63006 0 0 0
91 -13.97961 -3.32464 -8.32344 0 0 0
92 -14.22037 -4.26470 -8.08196 0 0 0
93 -14.46112 -4.94386 -8.77534 0 0 0
94 -12.72890 -1.39723 -7.92604 0 0 0
95 -11.95970 -0.84740 -8.25163 0 0 0
96 -11.19050 -0.85445 -8.89059 0 0 0
97 -10.42130 -0.30461 -9.21618 0 0 0
98 -14.28381 -1.11042 -7.51894 0 0 0
99 -15.06951 -0.51574 -7.34857 0 0 0
100 -15.85521 -0.07085 -7.77839 0 0 0
101 -16.64091 0.52384 -7.60801 0 0 0
ITEM: TIMESTEP
1000
ITEM: NUMBER OF ATOMS
101
ITEM: BOX BOUNDS pp pp pp
-1.0000000000000000e+03 1.0000000000000000e+03
-1.0000000000000000e+03 1.0000000000000000e+03
-1.0000000000000000e+03 1.0000000000000000e+03
ITEM: ATOMS id x y z ix iy iz
1 -1.17292 1.32448 3.67771 0 0 0
2 -0.47854 1.12158 3.04351 0 0 0
3 -0.88920 0.22950 2.96905 0 0 0
4 -1.79375 0.12225 3.35195 0 0 0
5 -2.45773 -0.42011 3.66115 0 0 0
6 -1.62430 -0.81848 3.73216 0 0 0
7 -2.02289 -1.70409 3.98571 0 0 0
8 -2.72819 -2.31497 4.26884 0 0 0
9 -2.11628 -2.91843 4.78237 0 0 0
10 -2.92568 -0.69405 2.82706 0 0 0
11 -3.72671 -1.16359 2.86502 0 0 0
12 -4.19341 -0.34168 2.76390 0 0 0
13 -5.02584 -0.90994 2.75865 0 0 0
14 -3.12926 -0.93228 4.26996 0 0 0
15 -4.08427 -1.23230 4.15196 0 0 0
16 -4.84999 -1.61450 4.49817 0 0 0
17 -5.26006 -0.87744 5.03216 0 0 0
18 -4.78534 -0.35946 4.31197 0 0 0
19 -4.61329 0.57935 4.28795 0 0 0
20 -4.12380 1.45781 4.25401 0 0 0
21 -5.04791 1.72583 4.51288 0 0 0
22 -5.78218 -1.47285 5.61867 0 0 0
23 -5.94283 -2.40552 5.30116 0 0 0
24 -6.37572 -3.00037 5.93688 0 0 0
25 -6.58098 -3.89856 5.62775 0 0 0
26 -5.60800 0.00598 5.10395 0 0 0
27 -5.77887 0.84784 5.63161 0 0 0
28 -6.01216 1.20069 6.48148 0 0 0
29 -6.97129 1.06554 5.98266 0 0 0
30 -7.44428 1.77832 5.50400 0 0 0
31 -8.06937 1.08955 5.58303 0 0 0
32 -8.46398 1.88691 5.25895 0 0 0
33 -9.37465 2.17339 5.63806 0 0 0
34 -6.94784 1.01754 7.03825 0 0 0
35 -6.52036 0.11486 7.13568 0 0 0
36 -6.06258 -0.60687 7.58106 0 0 0
37 -5.56022 -0.79848 6.80097 0 0 0
38 -7.06538 0.80962 4.98301 0 0 0
39 -7.83263 0.99259 4.36968 0 0 0
40 -7.53370 1.43064 3.45930 0 0 0
41 -7.16593 2.20425 3.03205 0 0 0
42 -6.11952 1.83160 2.79823 0 0 0
43 -6.05541 2.80140 2.68210 0 0 0
44 -6.49089 2.41451 1.82354 0 0 0
45 -6.86791 2.45684 0.93193 0 0 0
46 -6.76253 2.82084 3.74654 0 0 0
47 -6.33707 3.52784 4.37622 0 0 0
48 -5.43416 3.79999 4.33835 0 0 0
49 -5.10061 3.54718 5.22938 0 0 0
50 -7.81295 2.66438 2.49195 0 0 0
51 -8.23418 2.63878 1.64684 0 0 0
52 -8.76780 2.36493 0.71709 0 0 0
53 -9.43363 2.56897 0.00794 0 0 0
54 -10.26319 2.73687 0.29308 0 0 0
55 -10.83778 3.50504 0.07903 0 0 0
56 -11.76047 3.29867 -0.33868 0 0 0
57 -12.53613 3.73260 -0.74961 0 0 0
58 -9.25952 1.63649 0.16308 0 0 0
59 -9.62315 1.48724 1.06555 0 0 0
60 -9.52797 0.62097 0.57252 0 0 0
61 -10.41590 0.46334 0.99978 0 0 0
62 -8.81388 2.37790 -0.77266 0 0 0
63 -8.61698 2.55898 -1.66745 0 0 0
64 -8.34108 2.12360 -2.52565 0 0 0
65 -8.29347 1.13771 -2.48149 0 0 0
66 -8.81508 0.49235 -1.81991 0 0 0
67 -9.28797 -0.27807 -1.46547 0 0 0
68 -8.36665 -0.73164 -1.63612 0 0 0
69 -8.18231 -1.66778 -1.77026 0 0 0
70 -7.86454 0.66982 -3.24850 0 0 0
71 -8.09180 -0.36275 -3.19769 0 0 0
72 -8.22270 -0.99591 -3.94955 0 0 0
73 -7.88777 -1.13114 -4.94738 0 0 0
74 -9.05420 1.03784 -3.04061 0 0 0
75 -9.87656 0.50289 -3.28700 0 0 0
76 -10.83923 0.20094 -3.39060 0 0 0
77 -11.69871 -0.17620 -3.84829 0 0 0
78 -11.85243 0.72093 -3.69740 0 0 0
79 -12.03894 1.74314 -3.64779 0 0 0
80 -11.86589 2.58622 -4.18438 0 0 0
81 -12.20593 3.23540 -4.81266 0 0 0
82 -11.89139 -0.94870 -3.23428 0 0 0
83 -12.65148 -1.03624 -2.50088 0 0 0
84 -13.06445 -1.72661 -3.03489 0 0 0
85 -13.95890 -2.12447 -3.41365 0 0 0
86 -11.84507 -0.07885 -4.80029 0 0 0
87 -12.06164 -0.57842 -5.57422 0 0 0
88 -12.58962 -0.80142 -6.36370 0 0 0
89 -13.50329 -1.03677 -6.27960 0 0 0
90 -13.47573 -1.39067 -7.13707 0 0 0
91 -13.95955 -1.84982 -7.87764 0 0 0
92 -14.43231 -2.69582 -8.07251 0 0 0
93 -14.60903 -2.53131 -8.96218 0 0 0
94 -13.68172 -0.33172 -7.02631 0 0 0
95 -14.18177 0.46258 -7.45817 0 0 0
96 -14.33995 0.67797 -8.33876 0 0 0
97 -14.57376 -0.26424 -8.67093 0 0 0
98 -14.20241 -1.44099 -5.63149 0 0 0
99 -15.07789 -1.15754 -5.86243 0 0 0
100 -16.05760 -1.55529 -5.90375 0 0 0
101 -16.76826 -2.17383 -5.54807 0 0 0
ITEM: TIMESTEP
2000
ITEM: NUMBER OF ATOMS
101
ITEM: BOX BOUNDS pp pp pp
-1.0000000000000000e+03 1.0000000000000000e+03
-1.0000000000000000e+03 1.0000000000000000e+03
-1.0000000000000000e+03 1.0000000000000000e+03
ITEM: ATOMS id x y z ix iy iz
1 0.40059 1.61861 3.38207 0 0 0
2 -0.07500 0.68239 3.31821 0 0 0
3 -0.71143 0.78073 4.01744 0 0 0
4 -1.16017 0.70962 4.85819 0 0 0
5 -2.06243 0.48537 4.42408 0 0 0
6 -2.74048 -0.18604 4.09009 0 0 0
7 -2.73494 -1.00983 4.62029 0 0 0
8 -3.55444 -0.99524 4.15794 0 0 0
9 -4.04488 -0.16778 4.44329 0 0 0
10 -1.93897 1.32166 3.83708 0 0 0
11 -2.31303 0.54995 3.42267 0 0 0
12 -2.24035 -0.38233 3.19214 0 0 0
13 -2.15176 -1.32233 3.47403 0 0 0
14 -2.24240 -0.01771 5.27184 0 0 0
15 -2.70700 -0.26951 6.03472 0 0 0
16 -2.97382 0.61718 5.51829 0 0 0
17 -2.87586 1.55039 5.43756 0 0 0
18 -2.66982 1.65261 4.46455 0 0 0
19 -2.40704 2.37204 3.82598 0 0 0
20 -2.96326 3.18808 3.92900 0 0 0
21 -3.18550 3.84418 4.54841 0 0 0
22 -2.09095 1.66283 5.99438 0 0 0
23 -1.60813 0.94302 6.36275 0 0 0
24 -1.43066 0.43724 7.15788 0 0 0
25 -1.38077 -0.38200 6.64008 0 0 0
26 -3.53095 2.38777 5.29314 0 0 0
27 -4.01875 1.69512 4.81538 0 0 0
28 -4.66057 0.98052 4.78614 0 0 0
29 -5.42224 0.60328 5.13137 0 0 0
30 -5.90427 -0.17301 4.83263 0 0 0
31 -6.66667 -0.47603 5.41462 0 0 0
32 -7.59500 -0.77973 5.38262 0 0 0
33 -8.49656 -0.79037 4.94628 0 0 0
34 -4.57552 0.19822 5.44582 0 0 0
35 -3.88504 0.12690 6.10139 0 0 0
36 -4.37290 0.45555 6.86536 0 0 0
37 -4.84543 1.29079 6.50355 0 0 0
38 -6.09681 0.78131 4.43418 0 0 0
39 -6.70109 0.87750 3.68026 0 0 0
40 -7.38808 1.05525 3.02668 0 0 0
41 -7.93814 1.67092 2.47146 0 0 0
42 -8.24472 1.19976 1.63156 0 0 0
43 -8.18792 1.17923 0.67214 0 0 0
44 -7.87024 1.73193 -0.01998 0 0 0
45 -7.00919 1.35367 -0.26362 0 0 0
46 -8.14375 1.97504 3.38359 0 0 0
47 -8.03669 1.31214 4.11462 0 0 0
48 -8.23167 2.14089 4.64206 0 0 0
49 -7.63547 2.95774 4.50693 0 0 0
50 -8.71367 1.97808 2.11270 0 0 0
51 -9.47602 2.11312 1.52629 0 0 0
52 -9.86723 1.49152 0.91164 0 0 0
53 -10.32716 0.97428 0.16423 0 0 0
54 -10.11156 1.81392 -0.17548 0 0 0
55 -11.03662 2.10133 0.03877 0 0 0
56 -11.42353 2.99714 -0.16124 0 0 0
57 -11.61868 2.30503 -0.75197 0 0 0
58 -11.13409 0.83094 0.76274 0 0 0
59 -10.93355 0.47124 1.70406 0 0 0
60 -10.04158 0.21178 2.03277 0 0 0
61 -9.12956 0.53158 2.03820 0 0 0
62 -10.62072 0.84178 -0.69191 0 0 0
63 -10.98110 1.15491 -1.57155 0 0 0
64 -10.94717 0.18579 -1.97172 0 0 0
65 -10.76015 -0.16152 -2.87564 0 0 0
66 -10.51669 0.80206 -3.03727 0 0 0
67 -9.58525 0.97026 -2.95178 0 0 0
68 -8.85404 1.54768 -2.67613 0 0 0
69 -9.59238 1.86921 -2.18413 0 0 0
70 -10.10266 -0.89098 -2.66423 0 0 0
71 -9.51850 -0.84150 -1.88313 0 0 0
72 -9.17080 -0.89514 -0.96325 0 0 0
73 -10.07121 -1.17317 -1.13779 0 0 0
74 -11.58100 -0.39538 -3.39462 0 0 0
75 -11.97323 -0.44710 -4.25849 0 0 0
76 -12.24448 0.03476 -5.18186 0 0 0
77 -12.82169 0.83552 -4.92724 0 0 0
78 -13.68720 0.64849 -4.50330 0 0 0
79 -14.28133 0.92782 -3.78348 0 0 0
80 -14.55612 1.76563 -4.25751 0 0 0
81 -15.04637 2.35866 -4.88219 0 0 0
82 -12.67498 0.88080 -3.97710 0 0 0
83 -12.82820 -0.04277 -3.59064 0 0 0
84 -13.07424 -0.93998 -3.87977 0 0 0
85 -13.19878 -1.60385 -3.22187 0 0 0
86 -12.86683 1.45815 -5.71682 0 0 0
87 -13.84762 1.53195 -5.77754 0 0 0
88 -14.48213 1.24672 -6.54169 0 0 0
89 -13.67481 0.70756 -6.50434 0 0 0
90 -13.90532 0.54580 -7.52524 0 0 0
91 -13.06407 0.76378 -8.03597 0 0 0
92 -13.15517 0.24858 -8.82566 0 0 0
93 -13.76399 -0.43917 -8.45954 0 0 0
94 -13.16017 1.42399 -6.85638 0 0 0
95 -13.27612 2.40472 -6.73160 0 0 0
96 -13.36682 3.12597 -6.08242 0 0 0
97 -12.80251 2.57852 -5.48319 0 0 0
98 -13.93293 0.15437 -5.77348 0 0 0
99 -14.35919 -0.80012 -5.78170 0 0 0
100 -14.26462 -1.75985 -5.97309 0 0 0
101 -13.68645 -2.47495 -6.34313 0 0 0
ITEM: TIMESTEP
3000
ITEM: NUMBER OF ATOMS
101
ITEM: BOX BOUNDS pp pp pp
-1.0000000000000000e+03 1.0000000000000000e+03
-1.0000000000000000e+03 1.0000000000000000e+03
-1.0000000000000000e+03 1.0000000000000000e+03
ITEM: ATOMS id x y z ix iy iz
1 -0.78782 -2.14029 1.97842 0 0 0
2 -0.36208 -2.96358 2.28262 0 0 0
3 -0.87077 -2.58427 3.00618 0 0 0
4 -1.67758 -1.94281 2.88557 0 0 0
5 -2.18650 -1.06281 2.85385 0 0 0
6 -3.03532 -0.88127 2.25549 0 0 0
7 -3.34463 -1.46678 1.54573 0 0 0
8 -3.89117 -1.65625 0.68914 0 0 0
9 -3.13463 -1.81870 0.15217 0 0 0
10 -1.19367 -0.91402 2.71902 0 0 0
11 -0.48025 -0.88035 3.29618 0 0 0
12 -0.85026 -0.51211 4.10557 0 0 0
13 -0.81039 0.10513 4.88782 0 0 0
14 -2.22222 -0.46455 3.69960 0 0 0
15 -2.63314 0.33550 4.12485 0 0 0
16 -2.44357 0.93361 4.91789 0 0 0
17 -3.00098 1.76147 4.98383 0 0 0
18 -2.40919 2.12188 4.33970 0 0 0
19 -1.66269 2.72546 4.42057 0 0 0
20 -1.47323 3.66458 4.47877 0 0 0
21 -0.77670 3.86220 3.82161 0 0 0
22 -2.69298 2.10402 5.83213 0 0 0
23 -2.56936 2.59228 6.66440 0 0 0
24 -2.11549 3.42470 7.02683 0 0 0
25 -1.57175 3.18402 6.24641 0 0 0
26 -3.68318 0.96930 5.17385 0 0 0
27 -4.42427 0.47774 4.92407 0 0 0
28 -5.18102 -0.04165 4.64225 0 0 0
29 -6.16235 0.03352 4.94128 0 0 0
30 -6.39953 -0.76829 4.37551 0 0 0
31 -5.95442 -0.40292 3.56204 0 0 0
32 -5.88310 0.61570 3.39229 0 0 0
33 -6.11547 1.43453 3.80542 0 0 0
34 -5.56683 0.58513 5.52419 0 0 0
35 -5.02008 0.19840 6.18400 0 0 0
36 -4.48277 0.70259 6.81934 0 0 0
37 -3.94360 1.26563 7.39033 0 0 0
38 -6.86939 0.54510 4.41543 0 0 0
39 -7.82794 0.36833 4.28490 0 0 0
40 -8.34258 0.17325 3.48898 0 0 0
41 -8.58065 0.60601 2.67969 0 0 0
42 -7.83247 0.99100 2.11788 0 0 0
43 -7.50979 1.31998 1.30450 0 0 0
44 -6.78092 1.52080 1.91496 0 0 0
45 -5.91573 1.80777 2.05550 0 0 0
46 -9.11339 1.24630 2.14200 0 0 0
47 -9.22714 2.14277 2.58097 0 0 0
48 -8.89919 2.14842 3.48551 0 0 0
49 -9.27717 1.54730 4.17950 0 0 0
50 -9.25595 -0.07696 2.95066 0 0 0
51 -9.55725 -0.09307 2.05495 0 0 0
52 -9.89856 0.31707 1.25087 0 0 0
53 -10.05785 0.87979 0.40112 0 0 0
54 -9.90573 1.77921 0.96761 0 0 0
55 -10.26930 2.43770 0.22219 0 0 0
56 -10.77609 2.07079 -0.59796 0 0 0
57 -11.49508 2.04762 0.05394 0 0 0
58 -9.77030 -0.07610 0.17888 0 0 0
59 -10.30705 -0.87291 0.46876 0 0 0
60 -10.20330 -1.72072 -0.06387 0 0 0
61 -10.79131 -2.36796 0.27546 0 0 0
62 -10.53913 1.03842 -0.39600 0 0 0
63 -10.29265 1.06808 -1.42333 0 0 0
64 -10.53701 1.65856 -2.25101 0 0 0
65 -10.91177 2.04122 -3.09818 0 0 0
66 -10.36632 2.79846 -3.41813 0 0 0
67 -9.79585 3.59457 -3.73516 0 0 0
68 -9.32035 4.21994 -4.42081 0 0 0
69 -8.54598 3.77857 -4.99166 0 0 0
70 -9.91278 1.80682 -3.17085 0 0 0
71 -9.07198 1.52417 -3.48234 0 0 0
72 -8.18328 1.52527 -3.98258 0 0 0
73 -7.80368 1.14604 -4.79772 0 0 0
74 -11.85239 1.68343 -2.88248 0 0 0
75 -12.47342 1.31281 -2.27224 0 0 0
76 -13.48299 1.18195 -2.65081 0 0 0
77 -13.15083 0.28456 -2.93603 0 0 0
78 -14.15423 0.17143 -2.96272 0 0 0
79 -13.94106 -0.38367 -3.78430 0 0 0
80 -14.68478 -0.01041 -4.36004 0 0 0
81 -15.59751 0.18009 -4.06838 0 0 0
82 -13.27893 -0.63631 -2.48634 0 0 0
83 -12.52559 -0.93597 -3.05435 0 0 0
84 -11.67201 -1.34488 -2.96652 0 0 0
85 -12.26126 -1.72507 -3.70334 0 0 0
86 -12.23986 0.03864 -2.86676 0 0 0
87 -11.43348 0.09882 -3.50505 0 0 0
88 -12.03089 -0.12804 -4.29004 0 0 0
89 -12.58446 0.36597 -4.83735 0 0 0
90 -13.13027 0.10867 -5.60963 0 0 0
91 -13.72065 0.45569 -6.28688 0 0 0
92 -13.94806 -0.37939 -6.60599 0 0 0
93 -14.69975 -0.47004 -5.92751 0 0 0
94 -13.31172 1.02411 -5.10763 0 0 0
95 -13.40122 1.99266 -5.06029 0 0 0
96 -14.01117 1.73807 -5.74757 0 0 0
97 -14.84346 1.54291 -5.16348 0 0 0
98 -11.83333 0.02678 -5.35377 0 0 0
99 -10.88712 0.41400 -5.37864 0 0 0
100 -10.39834 -0.41894 -5.17360 0 0 0
101 -10.98293 -0.57910 -5.94140 0 0 0
ITEM: TIMESTEP
4000
ITEM: NUMBER OF ATOMS
101
ITEM: BOX BOUNDS pp pp pp
-1.0000000000000000e+03 1.0000000000000000e+03
-1.0000000000000000e+03 1.0000000000000000e+03
-1.0000000000000000e+03 1.0000000000000000e+03
ITEM: ATOMS id x y z ix iy iz
1 -2.96935 -3.93808 5.15331 0 0 0
2 -2.93771 -3.74214 4.15797 0 0 0
3 -2.65642 -2.80591 3.88897 0 0 0
4 -1.75600 -2.55660 3.51658 0 0 0
5 -1.50121 -1.77172 4.17597 0 0 0
6 -0.59044 -1.44760 4.06925 0 0 0
7 -0.02228 -0.70807 3.98821 0 0 0
8 -0.12245 -0.56957 3.06269 0 0 0
9 -0.20154 0.12039 2.41767 0 0 0
10 -1.75514 -2.63201 4.78434 0 0 0
11 -2.25270 -3.26400 5.40475 0 0 0
12 -1.84020 -3.48728 6.29921 0 0 0
13 -0.88303 -3.38709 6.55366 0 0 0
14 -2.32608 -1.52628 4.60679 0 0 0
15 -2.00011 -0.67334 5.02415 0 0 0
16 -2.87775 -0.21783 5.16792 0 0 0
17 -3.28163 0.52080 4.61810 0 0 0
18 -2.97139 1.44192 4.74292 0 0 0
19 -2.26708 2.13727 5.24234 0 0 0
20 -2.45928 2.65167 6.04226 0 0 0
21 -3.04386 3.19749 6.73561 0 0 0
22 -3.97053 -0.15090 4.36831 0 0 0
23 -4.71350 -0.70861 4.52280 0 0 0
24 -5.10502 -0.40926 5.37710 0 0 0
25 -4.55661 -0.38266 6.23297 0 0 0
26 -4.18108 1.01372 4.53610 0 0 0
27 -4.73697 1.79032 4.20291 0 0 0
28 -4.88032 2.18896 3.28631 0 0 0
29 -5.82666 2.35861 3.61166 0 0 0
30 -6.32817 3.18091 3.81404 0 0 0
31 -5.59708 3.34557 4.48912 0 0 0
32 -4.89082 3.96272 4.71520 0 0 0
33 -4.57233 4.83028 4.33035 0 0 0
34 -6.05169 1.97148 4.52725 0 0 0
35 -6.06829 2.40757 5.45333 0 0 0
36 -5.97978 3.44030 5.49451 0 0 0
37 -6.64982 3.19088 6.21156 0 0 0
38 -6.77754 2.41645 3.29633 0 0 0
39 -7.43760 2.27837 3.97319 0 0 0
40 -8.01815 2.12786 3.17813 0 0 0
41 -8.23068 1.67030 2.31820 0 0 0
42 -7.48425 2.26125 1.92559 0 0 0
43 -6.91271 2.29871 1.19844 0 0 0
44 -7.24014 2.45086 0.28747 0 0 0
45 -7.60060 2.14153 -0.60157 0 0 0
46 -9.04513 1.59921 2.77832 0 0 0
47 -9.81798 2.18688 2.99736 0 0 0
48 -9.52996 2.27324 2.02969 0 0 0
49 -9.60139 2.21482 1.01356 0 0 0
50 -8.85848 1.10180 1.75008 0 0 0
51 -9.49851 0.42514 1.48287 0 0 0
52 -9.35164 0.20716 0.58317 0 0 0
53 -9.74254 -0.18959 -0.22230 0 0 0
54 -10.21830 -0.53165 0.67545 0 0 0
55 -10.27914 -1.22592 1.39182 0 0 0
56 -9.75863 -1.46480 2.14994 0 0 0
57 -10.06121 -1.93256 2.97774 0 0 0
58 -9.72047 -1.14663 -0.52197 0 0 0
59 -9.17238 -1.96282 -0.65800 0 0 0
60 -8.98403 -1.93269 0.32442 0 0 0
61 -8.81568 -2.96153 0.27540 0 0 0
62 -9.09365 0.56476 -0.33851 0 0 0
63 -9.62133 0.71109 -1.14303 0 0 0
64 -8.96843 1.21321 -1.64999 0 0 0
65 -9.73077 1.78332 -1.51611 0 0 0
66 -9.88235 1.75172 -2.49925 0 0 0
67 -10.48261 2.52255 -2.69146 0 0 0
68 -10.49368 3.02395 -3.54422 0 0 0
69 -11.19728 2.94368 -4.22150 0 0 0
70 -10.07880 2.76009 -1.61097 0 0 0
71 -9.31399 3.15848 -2.07098 0 0 0
72 -8.45712 3.55984 -2.09428 0 0 0
73 -7.64077 3.26003 -1.70205 0 0 0
74 -10.52926 1.32053 -1.36526 0 0 0
75 -11.14466 1.17153 -2.06603 0 0 0
76 -11.91118 1.12415 -2.67241 0 0 0
77 -12.83338 1.45074 -3.20466 0 0 0
78 -13.82207 1.71538 -3.36850 0 0 0
79 -14.69329 1.78502 -3.77078 0 0 0
80 -14.80943 1.51595 -2.84436 0 0 0
81 -14.89588 0.63930 -2.33724 0 0 0
82 -12.93194 1.79438 -2.26077 0 0 0
83 -13.58815 1.18940 -1.97518 0 0 0
84 -13.84721 0.31102 -1.51640 0 0 0
85 -14.07668 -0.31601 -0.80550 0 0 0
86 -12.07458 2.05003 -3.40552 0 0 0
87 -11.61811 1.21499 -3.65858 0 0 0
88 -10.71107 1.00921 -3.92895 0 0 0
89 -10.69517 1.04568 -4.87486 0 0 0
90 -11.23108 0.17224 -4.92598 0 0 0
91 -11.36812 -0.72529 -5.30591 0 0 0
92 -10.97542 -0.57886 -6.20755 0 0 0
93 -10.10196 -0.23550 -6.14710 0 0 0
94 -11.08826 1.90503 -4.77716 0 0 0
95 -11.92862 2.30887 -5.18810 0 0 0
96 -12.71866 2.73538 -5.27307 0 0 0
97 -13.58022 3.30081 -5.37934 0 0 0
98 -9.73600 1.03581 -5.02220 0 0 0
99 -9.45196 0.99705 -5.89706 0 0 0
100 -8.57038 0.74908 -6.42255 0 0 0
101 -7.82163 1.28381 -6.12495 0 0 0
ITEM: TIMESTEP
5000
ITEM: NUMBER OF ATOMS
101
ITEM: BOX BOUNDS pp pp pp
-1.0000000000000000e+03 1.0000000000000000e+03
-1.0000000000000000e+03 1.0000000000000000e+03
-1.0000000000000000e+03 1.0000000000000000e+03
ITEM: ATOMS id x y z ix iy iz
1 -2.11319 -2.73300 4.03052 0 0 0
2 -2.15036 -2.54200 4.95119 0 0 0
3 -1.23043 -2.57524 5.35937 0 0 0
4 -0.82636 -2.09210 6.15051 0 0 0
5 -0.50138 -1.32247 6.66303 0 0 0
6 0.44319 -1.52562 6.57771 0 0 0
7 1.37583 -1.31679 6.67200 0 0 0
8 2.31139 -1.11752 6.92879 0 0 0
9 2.54378 -1.98069 7.27181 0 0 0
10 0.03871 -0.82974 7.30397 0 0 0
11 0.08262 -0.08403 7.94796 0 0 0
12 -0.62836 0.50972 8.07993 0 0 0
13 -1.00847 0.09820 8.92684 0 0 0
14 -0.69469 -0.52527 6.23010 0 0 0
15 -1.49225 -0.56926 5.70349 0 0 0
16 -2.22039 -0.30193 5.10699 0 0 0
17 -2.87619 0.36519 4.80858 0 0 0
18 -2.61881 1.13105 4.21944 0 0 0
19 -2.48456 1.81826 3.53721 0 0 0
20 -1.87964 2.44909 3.14310 0 0 0
21 -1.77496 2.45022 2.19817 0 0 0
22 -3.71806 -0.29672 4.95694 0 0 0
23 -4.39872 -1.00510 5.36154 0 0 0
24 -4.39160 -1.28723 6.29909 0 0 0
25 -4.65736 -0.76319 7.09072 0 0 0
26 -3.59775 0.63998 4.25279 0 0 0
27 -4.09022 1.16005 3.63155 0 0 0
28 -4.86237 1.76727 3.69283 0 0 0
29 -5.45068 2.53824 3.80887 0 0 0
30 -5.05814 3.34117 4.05198 0 0 0
31 -4.37211 3.57735 3.34458 0 0 0
32 -3.45683 3.63922 3.06859 0 0 0
33 -3.44795 3.54322 2.11361 0 0 0
34 -6.25945 2.11655 4.19508 0 0 0
35 -6.92113 1.42991 4.38548 0 0 0
36 -6.28864 0.97052 4.86705 0 0 0
37 -5.47820 0.37349 4.74647 0 0 0
38 -5.80109 2.95783 3.01985 0 0 0
39 -6.36988 2.28324 2.65304 0 0 0
40 -5.94388 2.01276 1.76005 0 0 0
41 -6.75504 2.19973 1.20719 0 0 0
42 -6.99494 3.11623 1.51013 0 0 0
43 -6.76451 4.04155 1.39802 0 0 0
44 -6.87620 4.69696 0.72451 0 0 0
45 -6.80141 4.04950 0.05457 0 0 0
46 -7.34244 2.05869 1.97254 0 0 0
47 -7.73001 2.12540 2.85014 0 0 0
48 -8.65715 1.78824 2.71058 0 0 0
49 -9.29174 2.46632 2.67319 0 0 0
50 -7.29343 1.77654 0.58390 0 0 0
51 -8.11238 1.34152 0.78735 0 0 0
52 -8.66474 0.68252 0.32737 0 0 0
53 -8.74233 0.35285 -0.55985 0 0 0
54 -9.33788 -0.38811 -0.93491 0 0 0
55 -10.00135 -0.75051 -0.30032 0 0 0
56 -10.78778 -1.20858 0.06924 0 0 0
57 -10.98477 -1.78717 0.85446 0 0 0
58 -7.83241 0.61822 -0.61876 0 0 0
59 -6.96830 0.19100 -0.66236 0 0 0
60 -6.15898 0.19988 -0.11425 0 0 0
61 -6.14654 -0.67110 -0.33338 0 0 0
62 -9.36770 1.13239 -0.63305 0 0 0
63 -9.32510 2.10996 -0.83501 0 0 0
64 -10.24000 2.49932 -1.19783 0 0 0
65 -10.19632 3.20872 -1.92962 0 0 0
66 -10.23876 3.43654 -2.96800 0 0 0
67 -10.01101 4.18148 -3.61173 0 0 0
68 -10.38064 4.40558 -4.50115 0 0 0
69 -9.80188 4.38984 -5.31442 0 0 0
70 -9.36642 2.67543 -1.82461 0 0 0
71 -8.60137 3.09097 -2.19031 0 0 0
72 -8.09140 3.93873 -2.25272 0 0 0
73 -7.25009 3.78833 -1.73783 0 0 0
74 -10.96981 3.54121 -1.49182 0 0 0
75 -11.90740 3.33224 -1.38793 0 0 0
76 -12.27212 3.28400 -2.35214 0 0 0
77 -12.50134 2.35227 -2.59578 0 0 0
78 -13.10841 2.53293 -1.96091 0 0 0
79 -12.92591 2.17355 -0.93065 0 0 0
80 -13.07590 3.02148 -0.49258 0 0 0
81 -13.86121 3.25249 0.18163 0 0 0
82 -12.65066 1.45991 -3.09405 0 0 0
83 -13.15727 1.38859 -3.92763 0 0 0
84 -13.85006 0.73128 -4.33846 0 0 0
85 -13.92411 1.17967 -5.23956 0 0 0
86 -11.50623 2.37295 -2.50760 0 0 0
87 -11.55305 1.89556 -3.42835 0 0 0
88 -11.70282 1.66407 -4.43600 0 0 0
89 -11.82314 1.30383 -5.32210 0 0 0
90 -11.25447 0.57909 -5.33735 0 0 0
91 -10.64313 -0.03643 -4.83340 0 0 0
92 -10.29421 -0.79030 -5.23677 0 0 0
93 -9.62842 -0.46987 -4.67661 0 0 0
94 -12.53701 1.10583 -5.90820 0 0 0
95 -12.73065 0.85554 -6.77435 0 0 0
96 -12.07225 0.16280 -6.50863 0 0 0
97 -12.35084 0.25025 -7.51087 0 0 0
98 -11.25560 1.98689 -5.80241 0 0 0
99 -10.71692 2.28825 -5.01266 0 0 0
100 -10.17116 2.27841 -4.26245 0 0 0
101 -10.85295 2.78278 -3.85643 0 0 0
ITEM: TIMESTEP
6000
ITEM: NUMBER OF ATOMS
101
ITEM: BOX BOUNDS pp pp pp
-1.0000000000000000e+03 1.0000000000000000e+03
-1.0000000000000000e+03 1.0000000000000000e+03
-1.0000000000000000e+03 1.0000000000000000e+03
ITEM: ATOMS id x y z ix iy iz
1 -0.43227 -4.48709 6.58442 0 0 0
2 -0.07504 -4.14537 5.77770 0 0 0
3 0.25419 -3.41586 5.27493 0 0 0
4 0.26882 -2.44232 5.05510 0 0 0
5 0.07604 -1.77259 5.73564 0 0 0
6 0.32155 -2.54191 6.20936 0 0 0
7 0.85489 -1.85620 6.78546 0 0 0
8 1.52059 -2.67798 6.85090 0 0 0
9 1.51093 -3.52776 6.38060 0 0 0
10 -0.27254 -1.59027 6.63810 0 0 0
11 -0.25905 -0.67087 7.23605 0 0 0
12 -0.15073 0.30904 7.32212 0 0 0
13 0.02353 -0.15045 8.14368 0 0 0
14 -0.43099 -1.03619 5.33339 0 0 0
15 -1.07304 -0.34541 5.03912 0 0 0
16 -1.49104 -0.18076 4.18491 0 0 0
17 -2.13508 -0.04480 3.53671 0 0 0
18 -1.24987 0.12106 3.11859 0 0 0
19 -0.73451 0.85603 3.43434 0 0 0
20 0.08538 1.31770 3.49965 0 0 0
21 0.40471 2.06109 2.99211 0 0 0
22 -2.57481 -0.77317 3.92567 0 0 0
23 -2.32632 -1.67037 4.38275 0 0 0
24 -1.50328 -1.40183 4.04907 0 0 0
25 -0.57193 -1.28630 4.26587 0 0 0
26 -2.76001 0.63331 3.53458 0 0 0
27 -3.53841 0.94972 4.12074 0 0 0
28 -3.91779 1.77229 3.73892 0 0 0
29 -4.37250 2.39093 4.33124 0 0 0
30 -5.03901 3.00350 4.49063 0 0 0
31 -5.38260 3.80721 4.96788 0 0 0
32 -5.89464 4.67348 5.08914 0 0 0
33 -6.84580 4.69679 4.72239 0 0 0
34 -4.08868 3.34499 4.42109 0 0 0
35 -4.29207 3.32331 5.38692 0 0 0
36 -4.85161 2.96079 6.08529 0 0 0
37 -3.99688 2.45053 5.77750 0 0 0
38 -5.23675 2.09489 3.95593 0 0 0
39 -6.30333 1.90238 3.83967 0 0 0
40 -6.28626 2.28267 2.92947 0 0 0
41 -7.01710 2.50579 2.33717 0 0 0
42 -7.15770 3.50716 2.33545 0 0 0
43 -6.55505 4.28845 2.08044 0 0 0
44 -6.52779 5.19865 2.53966 0 0 0
45 -6.98813 4.69581 3.16781 0 0 0
46 -7.24688 2.58916 3.25824 0 0 0
47 -7.85167 1.78026 3.18530 0 0 0
48 -8.36095 2.59273 3.00978 0 0 0
49 -8.93668 3.30265 3.44974 0 0 0
50 -7.10032 1.76722 1.58818 0 0 0
51 -7.52463 1.66204 0.75898 0 0 0
52 -8.00575 1.34711 -0.06763 0 0 0
53 -8.81688 0.82403 -0.40577 0 0 0
54 -8.90842 0.79036 -1.40255 0 0 0
55 -9.58974 0.20106 -1.43940 0 0 0
56 -9.58927 -0.72090 -1.87464 0 0 0
57 -9.55594 -1.30803 -1.08522 0 0 0
58 -8.36235 -0.03242 -0.71109 0 0 0
59 -7.48614 -0.53010 -0.61890 0 0 0
60 -7.42030 -1.23156 0.11364 0 0 0
61 -6.89661 -2.14393 0.40468 0 0 0
62 -9.48353 1.27854 0.04108 0 0 0
63 -9.71900 1.40778 -0.94479 0 0 0
64 -9.80385 2.39572 -1.03362 0 0 0
65 -9.41179 2.58364 -1.85635 0 0 0
66 -9.42294 3.40426 -2.31418 0 0 0
67 -9.31033 4.32305 -2.75646 0 0 0
68 -8.76020 4.82707 -2.18024 0 0 0
69 -7.73913 4.64883 -1.87376 0 0 0
70 -8.50952 2.85398 -2.11614 0 0 0
71 -7.95266 2.55155 -2.83907 0 0 0
72 -8.22609 2.05559 -3.60482 0 0 0
73 -7.28958 1.82507 -4.01942 0 0 0
74 -10.25488 2.21941 -2.18888 0 0 0
75 -11.14447 1.81228 -2.40187 0 0 0
76 -11.44205 2.06977 -3.27310 0 0 0
77 -12.42567 2.17559 -2.94806 0 0 0
78 -12.70416 2.27505 -2.05448 0 0 0
79 -13.60970 2.06944 -2.40314 0 0 0
80 -14.56782 2.41990 -2.36424 0 0 0
81 -14.03806 2.94340 -1.62083 0 0 0
82 -12.28965 2.95642 -3.61176 0 0 0
83 -12.62901 3.79192 -3.12073 0 0 0
84 -13.54187 4.09433 -3.60449 0 0 0
85 -14.41934 4.00612 -4.00729 0 0 0
86 -12.42304 1.28932 -3.30731 0 0 0
87 -11.57702 0.82980 -3.47126 0 0 0
88 -10.61899 0.76302 -3.50740 0 0 0
89 -9.79063 1.11906 -3.85553 0 0 0
90 -8.84297 0.78712 -3.80610 0 0 0
91 -8.11556 0.20093 -4.00792 0 0 0
92 -7.48596 -0.40638 -3.56360 0 0 0
93 -7.02801 -1.21630 -3.38935 0 0 0
94 -10.31942 0.89936 -4.57489 0 0 0
95 -10.47224 0.11773 -5.10328 0 0 0
96 -10.70490 -0.43418 -5.97700 0 0 0
97 -11.36322 -0.03941 -6.64640 0 0 0
98 -9.44735 1.96583 -3.54077 0 0 0
99 -10.31450 2.54207 -3.60323 0 0 0
100 -10.49359 3.57608 -3.62669 0 0 0
101 -10.86708 4.23102 -3.00906 0 0 0
ITEM: TIMESTEP
7000
ITEM: NUMBER OF ATOMS
101
ITEM: BOX BOUNDS pp pp pp
-1.0000000000000000e+03 1.0000000000000000e+03
-1.0000000000000000e+03 1.0000000000000000e+03
-1.0000000000000000e+03 1.0000000000000000e+03
ITEM: ATOMS id x y z ix iy iz
1 2.31790 -4.10170 5.39730 0 0 0
2 2.58523 -3.19405 5.10109 0 0 0
3 2.15000 -2.33306 4.90997 0 0 0
4 1.31240 -1.91126 4.56297 0 0 0
5 0.63959 -1.37207 5.17536 0 0 0
6 1.45096 -1.29204 5.74527 0 0 0
7 1.73877 -0.46589 6.15577 0 0 0
8 1.56985 0.58163 5.95514 0 0 0
9 2.27914 1.27080 6.20785 0 0 0
10 0.30790 -2.01089 5.77886 0 0 0
11 -0.47379 -2.60909 6.19057 0 0 0
12 0.17468 -2.79199 6.95838 0 0 0
13 0.77576 -3.23042 7.70845 0 0 0
14 -0.34553 -1.42580 5.21827 0 0 0
15 -0.90345 -0.83925 4.54199 0 0 0
16 -0.38218 0.03985 4.51165 0 0 0
17 -1.05510 0.76270 4.60846 0 0 0
18 -1.09645 1.11593 5.53792 0 0 0
19 -0.40478 1.09635 6.29318 0 0 0
20 -0.57326 0.16565 6.51802 0 0 0
21 0.30765 -0.31078 6.14742 0 0 0
22 -1.09038 1.17942 3.64995 0 0 0
23 -1.59921 1.80709 3.10093 0 0 0
24 -1.60619 2.39973 2.34475 0 0 0
25 -2.62010 2.28680 2.31216 0 0 0
26 -1.81411 1.46350 4.87349 0 0 0
27 -2.67198 1.07765 4.51229 0 0 0
28 -3.00362 2.00822 4.18404 0 0 0
29 -3.96642 2.24820 4.19556 0 0 0
30 -4.59716 2.91360 4.55063 0 0 0
31 -5.05991 2.72479 5.38451 0 0 0
32 -6.06844 2.28946 5.40823 0 0 0
33 -7.08578 2.07957 5.56030 0 0 0
34 -3.33806 3.01139 3.95323 0 0 0
35 -2.67104 3.68727 3.86356 0 0 0
36 -1.91844 4.20792 3.34569 0 0 0
37 -2.54264 4.63116 2.68977 0 0 0
38 -4.52590 2.21776 3.39411 0 0 0
39 -4.83619 2.80587 2.66150 0 0 0
40 -5.81327 3.01291 2.79399 0 0 0
41 -6.67552 2.46862 2.54866 0 0 0
42 -7.27616 3.13452 2.17193 0 0 0
43 -6.62828 3.25624 1.35229 0 0 0
44 -6.25879 3.11612 0.50532 0 0 0
45 -6.07686 3.76241 -0.29985 0 0 0
46 -7.10848 2.12968 3.34792 0 0 0
47 -7.67073 1.61357 3.92118 0 0 0
48 -7.93074 0.75522 4.05542 0 0 0
49 -8.65850 0.62164 3.52891 0 0 0
50 -6.08904 1.75003 2.20479 0 0 0
51 -6.12882 1.22034 1.37594 0 0 0
52 -6.84388 0.64581 1.04161 0 0 0
53 -7.50918 0.20202 0.57209 0 0 0
54 -7.06362 0.03145 -0.30495 0 0 0
55 -7.10565 -0.33023 -1.22561 0 0 0
56 -7.81220 -0.16829 -1.92320 0 0 0
57 -8.74871 -0.22541 -1.77822 0 0 0
58 -7.92075 -0.67765 0.62834 0 0 0
59 -8.53672 -1.41347 0.42585 0 0 0
60 -8.98532 -1.69320 -0.36742 0 0 0
61 -9.12786 -2.60082 -0.60068 0 0 0
62 -7.85040 1.03984 0.32551 0 0 0
63 -7.50260 1.68274 -0.29154 0 0 0
64 -8.34086 2.06957 -0.60561 0 0 0
65 -8.66564 3.04083 -0.38733 0 0 0
66 -8.01798 2.93915 0.35189 0 0 0
67 -8.35935 3.89084 0.59680 0 0 0
68 -8.50411 4.84152 0.27268 0 0 0
69 -8.37111 5.59678 -0.33319 0 0 0
70 -8.29736 3.67574 -1.15158 0 0 0
71 -8.39912 3.26912 -2.10166 0 0 0
72 -9.14891 2.60466 -2.11727 0 0 0
73 -9.98750 2.86006 -2.43682 0 0 0
74 -9.52491 2.63077 -0.62362 0 0 0
75 -10.49607 2.68198 -0.59254 0 0 0
76 -11.42627 3.12342 -0.79022 0 0 0
77 -12.31353 3.41957 -1.09953 0 0 0
78 -12.95348 3.01340 -0.38312 0 0 0
79 -13.67940 2.37880 -0.33140 0 0 0
80 -14.42693 1.69393 -0.59316 0 0 0
81 -14.16257 0.77946 -0.62257 0 0 0
82 -12.26958 4.34223 -0.82818 0 0 0
83 -11.84055 5.21429 -1.00104 0 0 0
84 -11.05459 5.26471 -1.64344 0 0 0
85 -11.35457 6.16092 -1.94528 0 0 0
86 -12.52724 2.91505 -1.88798 0 0 0
87 -11.81929 3.08792 -2.58349 0 0 0
88 -11.25651 2.38266 -2.16621 0 0 0
89 -11.08822 1.40970 -2.39961 0 0 0
90 -11.08067 0.45055 -2.68007 0 0 0
91 -10.58754 -0.05589 -3.36544 0 0 0
92 -10.50079 -0.99847 -3.20488 0 0 0
93 -9.62750 -0.30217 -3.24803 0 0 0
94 -11.89373 1.12423 -2.88798 0 0 0
95 -12.36122 2.02769 -3.09882 0 0 0