ITEM: TIMESTEP
0
ITEM: NUMBER OF ATOMS
193
ITEM: BOX BOUNDS pp pp pp
-1.0000000000000000e+03 1.0000000000000000e+03
-1.0000000000000000e+03 1.0000000000000000e+03
-1.0000000000000000e+03 1.0000000000000000e+03
ITEM: ATOMS id x y z ix iy iz
1 0.00000 0.00000 0.00000 0 0 0
2 0.00000 0.00000 1.00000 0 0 0
3 0.00000 -0.50000 1.86603 0 0 0
4 0.00000 0.00000 2.73205 0 0 0
5 0.00000 -0.50000 3.59808 0 0 0
6 0.00000 0.00000 4.46410 0 0 0
7 0.00000 -0.50000 5.33013 0 0 0
8 0.00000 0.00000 6.19615 0 0 0
9 0.00000 -0.50000 7.06218 0 0 0
10 0.00000 0.00000 7.92820 0 0 0
11 0.00000 -0.50000 8.79423 0 0 0
12 0.00000 0.00000 9.66025 0 0 0
13 0.00000 -0.50000 10.52628 0 0 0
14 0.94264 -0.66599 10.81589 0 0 0
15 1.88528 -0.95455 10.98371 0 0 0
16 2.82792 -0.95349 11.31752 0 0 0
17 3.77056 -1.24205 11.48533 0 0 0
18 4.71320 -1.24099 11.81914 0 0 0
19 5.65585 -1.52955 11.98696 0 0 0
20 6.59849 -1.52850 12.32077 0 0 0
21 7.54113 -1.81705 12.48858 0 0 0
22 8.48377 -1.81600 12.82239 0 0 0
23 9.42641 -2.10456 12.99021 0 0 0
24 10.36905 -2.10350 13.32401 0 0 0
25 11.31169 -2.39206 13.49183 0 0 0
26 -0.47041 -1.37434 10.40693 0 0 0
27 -0.94081 -2.07187 9.86639 0 0 0
28 -1.41122 -2.88874 10.20020 0 0 0
29 -1.88163 -3.58627 9.65966 0 0 0
30 -2.35203 -4.40315 9.99347 0 0 0
31 -2.82244 -5.10067 9.45294 0 0 0
32 -3.29285 -5.91755 9.78674 0 0 0
33 -3.76325 -6.61508 9.24621 0 0 0
34 -4.23366 -7.43195 9.58002 0 0 0
35 -4.70406 -8.12948 9.03948 0 0 0
36 -5.17447 -8.94636 9.37329 0 0 0
37 -5.64488 -9.64388 8.83275 0 0 0
38 -0.47223 0.03962 11.22328 0 0 0
39 -0.94447 0.15845 12.09670 0 0 0
40 -1.41670 0.97427 12.43051 0 0 0
41 -1.88894 1.09310 13.30394 0 0 0
42 -2.36117 1.90892 13.63774 0 0 0
43 -2.83341 2.02775 14.51117 0 0 0
44 -3.30564 2.84357 14.84498 0 0 0
45 -3.77788 2.96240 15.71841 0 0 0
46 -4.25011 3.77822 16.05221 0 0 0
47 -4.72234 3.89705 16.92564 0 0 0
48 -5.19458 4.71287 17.25945 0 0 0
49 -5.66681 4.83169 18.13287 0 0 0
50 -6.58386 4.43745 18.07287 0 0 0
51 -7.50090 4.12602 17.82379 0 0 0
52 -8.41795 3.75459 17.96895 0 0 0
53 -9.33499 3.44317 17.71986 0 0 0
54 -10.25203 3.07174 17.86503 0 0 0
55 -11.16908 2.76031 17.61594 0 0 0
56 -12.08612 2.38888 17.76110 0 0 0
57 -13.00316 2.07746 17.51202 0 0 0
58 -13.92021 1.70603 17.65718 0 0 0
59 -14.83725 1.39460 17.40809 0 0 0
60 -15.75430 1.02317 17.55325 0 0 0
61 -16.67134 0.71174 17.30417 0 0 0
62 -5.73678 5.80652 18.34460 0 0 0
63 -5.80675 6.54487 19.01538 0 0 0
64 -5.87672 7.49495 18.71133 0 0 0
65 -5.94669 8.23331 19.38211 0 0 0
66 -6.01666 9.18339 19.07806 0 0 0
67 -6.08662 9.92175 19.74883 0 0 0
68 -6.15659 10.87183 19.44479 0 0 0
69 -6.22656 11.61018 20.11556 0 0 0
70 -6.29653 12.56027 19.81151 0 0 0
71 -6.36650 13.29862 20.48229 0 0 0
72 -6.43647 14.24871 20.17824 0 0 0
73 -6.50643 14.98706 20.84902 0 0 0
74 -5.15271 4.37012 18.85581 0 0 0
75 -4.63860 3.60891 19.25110 0 0 0
76 -4.12449 3.57064 20.10798 0 0 0
77 -3.61039 2.80943 20.50327 0 0 0
78 -3.09628 2.77116 21.36014 0 0 0
79 -2.58217 2.00995 21.75544 0 0 0
80 -2.06806 1.97168 22.61231 0 0 0
81 -1.55396 1.21048 23.00760 0 0 0
82 -1.03985 1.17221 23.86447 0 0 0
83 -0.52574 0.41100 24.25977 0 0 0
84 -0.01164 0.37273 25.11664 0 0 0
85 0.50247 -0.38848 25.51193 0 0 0
86 1.07103 -0.05296 26.26304 0 0 0
87 1.63959 -0.13794 27.08128 0 0 0
88 2.20815 0.52819 27.56400 0 0 0
89 2.77671 0.44320 28.38224 0 0 0
90 3.34527 1.10933 28.86495 0 0 0
91 3.91383 1.02434 29.68319 0 0 0
92 4.48239 1.69047 30.16591 0 0 0
93 5.05096 1.60549 30.98415 0 0 0
94 5.61952 2.27161 31.46687 0 0 0
95 6.18808 2.18663 32.28511 0 0 0
96 6.75664 2.85275 32.76783 0 0 0
97 7.32520 2.76777 33.58607 0 0 0
98 1.08562 -0.79761 24.81011 0 0 0
99 1.66877 -0.80101 23.99775 0 0 0
100 2.25192 -1.50624 23.59452 0 0 0
101 2.83506 -1.50964 22.78216 0 0 0
102 3.41821 -2.21487 22.37893 0 0 0
103 4.00136 -2.21827 21.56657 0 0 0
104 4.58451 -2.92350 21.16334 0 0 0
105 5.16766 -2.92690 20.35098 0 0 0
106 5.75081 -3.63213 19.94775 0 0 0
107 6.33396 -3.63553 19.13540 0 0 0
108 6.91710 -4.34076 18.73217 0 0 0
109 7.50025 -4.34416 17.91981 0 0 0
110 -0.13440 -1.07716 25.85850 0 0 0
111 -0.77127 -1.84686 25.81429 0 0 0
112 -1.40815 -2.27000 26.45877 0 0 0
113 -2.04502 -3.03970 26.41457 0 0 0
114 -2.68189 -3.46283 27.05904 0 0 0
115 -3.31876 -4.23253 27.01484 0 0 0
116 -3.95563 -4.65567 27.65932 0 0 0
117 -4.59250 -5.42537 27.61511 0 0 0
118 -5.22938 -5.84850 28.25959 0 0 0
119 -5.86625 -6.61820 28.21538 0 0 0
120 -6.50312 -7.04134 28.85986 0 0 0
121 -7.13999 -7.81104 28.81566 0 0 0
122 -6.62608 -8.66852 28.79084 0 0 0
123 -6.11217 -9.39872 28.34061 0 0 0
124 -5.59826 -10.15373 28.74786 0 0 0
125 -5.08434 -10.88392 28.29763 0 0 0
126 -4.57043 -11.63893 28.70489 0 0 0
127 -4.05652 -12.36913 28.25466 0 0 0
128 -3.54261 -13.12414 28.66191 0 0 0
129 -3.02869 -13.85433 28.21168 0 0 0
130 -2.51478 -14.60934 28.61893 0 0 0
131 -2.00087 -15.33954 28.16870 0 0 0
132 -1.48696 -16.09455 28.57595 0 0 0
133 -0.97304 -16.82475 28.12572 0 0 0
134 -7.69955 -7.73433 27.99042 0 0 0
135 -8.25911 -7.25529 27.31410 0 0 0
136 -8.81866 -7.60148 26.56107 0 0 0
137 -9.37822 -7.12243 25.88475 0 0 0
138 -9.93778 -7.46862 25.13172 0 0 0
139 -10.49734 -6.98958 24.45540 0 0 0
140 -11.05689 -7.33577 23.70238 0 0 0
141 -11.61645 -6.85672 23.02605 0 0 0
142 -12.17601 -7.20291 22.27303 0 0 0
143 -12.73556 -6.72387 21.59671 0 0 0
144 -13.29512 -7.07006 20.84368 0 0 0
145 -13.85468 -6.59101 20.16736 0 0 0
146 -7.73212 -7.80105 29.62143 0 0 0
147 -8.32426 -8.19530 30.32425 0 0 0
148 -8.91639 -7.78376 31.01709 0 0 0
149 -9.50852 -8.17800 31.71990 0 0 0
150 -10.10065 -7.76647 32.41274 0 0 0
151 -10.69278 -8.16071 33.11555 0 0 0
152 -11.28491 -7.74917 33.80839 0 0 0
153 -11.87705 -8.14341 34.51120 0 0 0
154 -12.46918 -7.73188 35.20404 0 0 0
155 -13.06131 -8.12612 35.90685 0 0 0
156 -13.65344 -7.71458 36.59969 0 0 0
157 -14.24557 -8.10883 37.30251 0 0 0
158 -15.20280 -7.95761 37.05581 0 0 0
159 -16.16002 -7.70331 36.91777 0 0 0
160 -17.11724 -7.69571 36.62852 0 0 0
161 -18.07447 -7.44141 36.49048 0 0 0
162 -19.03169 -7.43380 36.20123 0 0 0
163 -19.98891 -7.17950 36.06320 0 0 0
164 -20.94614 -7.17190 35.77395 0 0 0
165 -21.90336 -6.91760 35.63591 0 0 0
166 -22.86058 -6.90999 35.34666 0 0 0
167 -23.81781 -6.65569 35.20862 0 0 0
168 -24.77503 -6.64808 34.91937 0 0 0
169 -25.73225 -6.39378 34.78133 0 0 0
170 -14.05564 -7.67271 38.18212 0 0 0
171 -13.86571 -7.73482 39.16195 0 0 0
172 -13.67577 -6.91732 39.70566 0 0 0
173 -13.48584 -6.97944 40.68549 0 0 0
174 -13.29590 -6.16194 41.22920 0 0 0
175 -13.10597 -6.22406 42.20903 0 0 0
176 -12.91604 -5.40656 42.75274 0 0 0
177 -12.72610 -5.46868 43.73257 0 0 0
178 -12.53617 -4.65118 44.27628 0 0 0
179 -12.34624 -4.71330 45.25611 0 0 0
180 -12.15630 -3.89580 45.79982 0 0 0
181 -11.96637 -3.95791 46.77965 0 0 0
182 -14.07126 -9.09096 37.37340 0 0 0
183 -13.89694 -9.97696 36.94373 0 0 0
184 -13.72262 -10.79207 37.49619 0 0 0
185 -13.54831 -11.67807 37.06652 0 0 0
186 -13.37399 -12.49317 37.61899 0 0 0
187 -13.19967 -13.37917 37.18932 0 0 0
188 -13.02536 -14.19428 37.74178 0 0 0
189 -12.85104 -15.08028 37.31211 0 0 0
190 -12.67672 -15.89539 37.86457 0 0 0
191 -12.50241 -16.78139 37.43490 0 0 0
192 -12.32809 -17.59649 37.98737 0 0 0
193 -12.15377 -18.48249 37.55770 0 0 0
ITEM: TIMESTEP
1000
ITEM: NUMBER OF ATOMS
193
ITEM: BOX BOUNDS pp pp pp
-1.0000000000000000e+03 1.0000000000000000e+03
-1.0000000000000000e+03 1.0000000000000000e+03
-1.0000000000000000e+03 1.0000000000000000e+03
ITEM: ATOMS id x y z ix iy iz
1 -1.83733 -0.76650 4.35205 0 0 0
2 -2.54689 -0.33203 4.81024 0 0 0
3 -2.89459 -0.12272 5.83797 0 0 0
4 -2.48938 0.62529 6.42797 0 0 0
5 -1.67737 1.01263 6.71420 0 0 0
6 -1.02357 0.28846 6.48492 0 0 0
7 -0.98655 -0.57971 6.84153 0 0 0
8 -0.49505 -1.06400 7.46946 0 0 0
9 -0.30885 -1.72152 8.25083 0 0 0
10 -0.95720 -1.28302 8.80661 0 0 0
11 -0.38629 -0.95827 9.52097 0 0 0
12 -0.12596 -0.46344 10.41478 0 0 0
13 0.05696 -0.55857 11.38515 0 0 0
14 0.91877 -0.66462 11.87293 0 0 0
15 1.74622 -0.36800 11.36109 0 0 0
16 2.59734 -0.46699 10.95443 0 0 0
17 2.98332 -1.32536 10.63948 0 0 0
18 3.86229 -1.67685 10.44864 0 0 0
19 3.27901 -2.44870 10.32624 0 0 0
20 2.96408 -2.44585 9.41291 0 0 0
21 3.98033 -2.42958 9.37107 0 0 0
22 4.79156 -2.16962 9.92536 0 0 0
23 5.72530 -1.99981 9.91863 0 0 0
24 6.57134 -2.15961 10.39089 0 0 0
25 7.51228 -1.96543 10.70994 0 0 0
26 -0.81284 -0.95117 11.14495 0 0 0
27 -1.34817 -1.71007 11.03188 0 0 0
28 -2.22463 -1.38928 10.82857 0 0 0
29 -2.97447 -1.40653 11.41545 0 0 0
30 -3.65536 -1.76237 12.05690 0 0 0
31 -4.17369 -2.59169 12.01362 0 0 0
32 -4.50134 -3.32176 12.50366 0 0 0
33 -4.90422 -4.14919 12.75016 0 0 0
34 -4.62703 -5.10374 12.71299 0 0 0
35 -3.85901 -5.70169 12.67295 0 0 0
36 -3.51417 -6.53077 13.03094 0 0 0
37 -3.36435 -7.49555 13.27212 0 0 0
38 -0.57585 -0.07385 11.87342 0 0 0
39 -0.35865 0.56305 12.56639 0 0 0
40 -0.86784 1.44997 12.76463 0 0 0
41 -1.66528 1.59972 13.35290 0 0 0
42 -2.42767 1.80634 13.87825 0 0 0
43 -3.25715 2.35982 14.12229 0 0 0
44 -4.21811 2.33150 14.34005 0 0 0
45 -5.01119 2.18678 14.95588 0 0 0
46 -5.53099 3.00079 14.81031 0 0 0
47 -5.54734 3.44317 15.65723 0 0 0
48 -5.17319 3.49850 16.60735 0 0 0
49 -5.33646 4.03578 17.41318 0 0 0
50 -5.94491 4.57815 17.98171 0 0 0
51 -6.90278 4.65913 18.37809 0 0 0
52 -7.33038 3.80799 17.98145 0 0 0
53 -8.01285 3.70531 17.34495 0 0 0
54 -8.03193 3.68962 16.38411 0 0 0
55 -8.04092 2.76652 16.80824 0 0 0
56 -8.55433 2.37620 17.53111 0 0 0
57 -9.29585 1.76667 17.50327 0 0 0
58 -10.13377 1.17503 17.40295 0 0 0
59 -11.00071 0.91388 17.13517 0 0 0
60 -11.80896 0.80753 17.72716 0 0 0
61 -12.39988 1.60181 17.57893 0 0 0
62 -5.13032 4.90131 17.03802 0 0 0
63 -5.26398 5.80606 17.46703 0 0 0
64 -5.67448 6.62236 16.91284 0 0 0
65 -5.75442 7.53423 17.15676 0 0 0
66 -6.55899 7.82405 17.63836 0 0 0
67 -6.76458 7.55842 18.58577 0 0 0
68 -6.30991 8.05754 19.31677 0 0 0
69 -6.44091 8.81370 20.02477 0 0 0
70 -6.58296 9.50149 20.79077 0 0 0
71 -6.81629 9.34615 21.72225 0 0 0
72 -7.23799 9.11255 22.61365 0 0 0
73 -6.60106 8.65994 23.28551 0 0 0
74 -4.85152 3.93154 18.23062 0 0 0
75 -4.19050 3.52157 18.83063 0 0 0
76 -3.69502 3.43296 19.73526 0 0 0
77 -4.08243 2.93389 20.41794 0 0 0
78 -3.06099 2.93339 20.69363 0 0 0
79 -2.65670 2.64093 21.44080 0 0 0
80 -1.74077 2.68240 21.77613 0 0 0
81 -1.37536 2.22579 22.54051 0 0 0
82 -0.99517 1.31620 22.51946 0 0 0
83 -1.33986 1.26834 23.43114 0 0 0
84 -1.84160 0.72129 24.09421 0 0 0
85 -1.58227 0.05123 24.70512 0 0 0
86 -1.12348 0.19141 25.63005 0 0 0
87 -0.36153 -0.50417 25.49026 0 0 0
88 -0.69171 -1.00297 26.22698 0 0 0
89 0.07036 -1.18992 26.77032 0 0 0
90 1.00100 -1.00575 27.16566 0 0 0
91 1.89889 -0.67782 27.19735 0 0 0
92 2.60850 -0.00976 27.28356 0 0 0
93 3.15309 -0.15297 28.03467 0 0 0
94 3.57088 -0.11838 28.89138 0 0 0
95 3.29462 -0.99005 29.19473 0 0 0
96 3.54170 -1.34694 30.08715 0 0 0
97 4.03763 -0.50994 30.16991 0 0 0
98 -1.17707 -0.09772 23.91141 0 0 0
99 -0.49426 -0.48119 23.25601 0 0 0
100 0.38416 -0.95801 23.20464 0 0 0
101 1.24394 -1.33974 23.36712 0 0 0
102 1.20816 -1.55767 22.42525 0 0 0
103 2.04403 -2.12368 22.37425 0 0 0
104 2.48389 -1.34685 22.03763 0 0 0
105 3.19122 -2.01746 21.65180 0 0 0
106 4.19187 -2.21183 21.71775 0 0 0
107 4.69276 -2.20592 22.54766 0 0 0
108 5.29501 -2.66552 23.16163 0 0 0
109 5.59571 -3.52277 23.10788 0 0 0
110 -2.27471 -0.51940 25.18366 0 0 0
111 -3.02223 -0.66274 25.83812 0 0 0
112 -3.76429 -0.97656 26.21912 0 0 0
113 -3.46397 -1.33241 27.10969 0 0 0
114 -4.35265 -1.72201 27.50555 0 0 0
115 -4.66642 -2.62415 27.51623 0 0 0
116 -5.38473 -3.23816 27.26307 0 0 0
117 -6.03063 -3.80887 27.86360 0 0 0
118 -6.18497 -4.65734 28.31199 0 0 0
119 -6.59184 -5.43387 28.77724 0 0 0
120 -7.53169 -5.40370 28.64012 0 0 0
121 -8.10090 -5.87033 29.25482 0 0 0
122 -7.26833 -6.38756 29.19655 0 0 0
123 -7.08166 -6.31102 28.21934 0 0 0
124 -6.60093 -7.22975 28.34768 0 0 0
125 -6.79577 -8.23499 28.25027 0 0 0
126 -6.84155 -9.19136 28.06800 0 0 0
127 -6.03918 -9.93744 27.95683 0 0 0
128 -5.13942 -10.28817 27.61830 0 0 0
129 -5.54617 -11.02670 28.07858 0 0 0
130 -4.98137 -11.50986 27.44808 0 0 0
131 -4.39154 -12.20484 27.43607 0 0 0
132 -3.65021 -12.68107 27.73422 0 0 0
133 -3.21194 -12.10663 27.09972 0 0 0
134 -8.56777 -6.76613 29.26508 0 0 0
135 -8.80400 -7.67826 29.16932 0 0 0
136 -9.25627 -8.17152 28.46567 0 0 0
137 -10.23426 -8.38783 28.10732 0 0 0
138 -10.38386 -8.14594 27.24061 0 0 0
139 -10.73860 -7.70269 26.39066 0 0 0
140 -10.86264 -7.40144 25.44713 0 0 0
141 -11.47028 -6.70531 25.25189 0 0 0
142 -12.25440 -6.10769 25.38750 0 0 0
143 -13.17799 -6.44139 25.58322 0 0 0
144 -13.93178 -5.86779 25.41624 0 0 0
145 -14.73773 -5.64530 25.87126 0 0 0
146 -8.37010 -6.10170 30.12982 0 0 0
147 -9.20829 -6.20412 30.67318 0 0 0
148 -9.76849 -7.04248 31.00358 0 0 0
149 -10.28827 -7.53425 31.68170 0 0 0
150 -10.38421 -8.06919 32.45966 0 0 0
151 -10.87223 -8.43775 33.28875 0 0 0
152 -11.16822 -8.49649 34.20259 0 0 0
153 -12.07068 -8.46911 34.55643 0 0 0
154 -11.70840 -8.14262 35.40630 0 0 0
155 -11.82415 -8.10226 36.42501 0 0 0
156 -12.33784 -8.33158 37.27026 0 0 0
157 -13.20654 -8.72906 37.20672 0 0 0
158 -14.04997 -8.38643 36.73124 0 0 0
159 -14.12379 -7.38885 36.80227 0 0 0
160 -14.86990 -7.13327 36.21212 0 0 0
161 -15.38615 -7.74938 36.81445 0 0 0
162 -16.41531 -7.48784 36.84473 0 0 0
163 -16.64413 -7.65179 35.86259 0 0 0
164 -17.47179 -8.06682 35.60390 0 0 0
165 -18.28329 -7.79073 35.07847 0 0 0
166 -19.15292 -7.64971 34.87919 0 0 0
167 -20.11468 -7.73508 34.89442 0 0 0
168 -20.66881 -6.98918 34.84495 0 0 0
169 -20.87228 -6.03025 34.96711 0 0 0
170 -13.71929 -8.51497 37.99554 0 0 0
171 -13.00483 -7.82819 38.25813 0 0 0
172 -13.04773 -6.92648 37.83533 0 0 0
173 -13.76552 -6.35381 38.34176 0 0 0
174 -13.79128 -5.67993 39.03719 0 0 0
175 -13.07097 -4.93910 39.02745 0 0 0
176 -12.93408 -4.86974 39.96434 0 0 0
177 -13.44455 -5.25635 40.67527 0 0 0
178 -13.22116 -6.15017 41.12802 0 0 0
179 -13.94031 -6.03730 41.69834 0 0 0
180 -13.26678 -5.99691 42.37766 0 0 0
181 -13.02274 -5.45973 43.16953 0 0 0
182 -13.39819 -9.43282 37.90038 0 0 0
183 -13.56687 -10.43514 37.81529 0 0 0
184 -13.70375 -11.34272 37.38558 0 0 0
185 -14.23958 -12.11429 37.11991 0 0 0
186 -13.54867 -12.28258 36.38676 0 0 0
187 -13.24082 -12.76298 35.61306 0 0 0
188 -12.50853 -13.31868 35.34466 0 0 0
189 -11.93245 -13.59383 36.08211 0 0 0
190 -12.38869 -13.39249 36.87529 0 0 0
191 -13.24055 -13.79612 37.31843 0 0 0
192 -13.66909 -14.69084 37.36939 0 0 0
193 -13.41807 -15.37052 38.16331 0 0 0
ITEM: TIMESTEP
2000
ITEM: NUMBER OF ATOMS
193
ITEM: BOX BOUNDS pp pp pp
-1.0000000000000000e+03 1.0000000000000000e+03
-1.0000000000000000e+03 1.0000000000000000e+03
-1.0000000000000000e+03 1.0000000000000000e+03
ITEM: ATOMS id x y z ix iy iz
1 -5.14074 -2.27450 6.99969 0 0 0
2 -4.17019 -2.35951 7.03244 0 0 0
3 -3.33897 -2.68873 7.41353 0 0 0
4 -3.23556 -1.74510 7.00677 0 0 0
5 -2.67946 -1.22744 7.63938 0 0 0
6 -2.07713 -1.56209 8.40428 0 0 0
7 -1.27320 -1.50063 8.98791 0 0 0
8 -1.19106 -2.02766 9.90144 0 0 0
9 -0.31308 -1.73022 10.21814 0 0 0
10 0.28020 -1.60514 10.90459 0 0 0
11 0.13586 -0.70969 10.58152 0 0 0
12 -0.57171 -0.64205 11.21167 0 0 0
13 -0.15014 0.11628 11.59869 0 0 0
14 0.54640 -0.40181 11.85200 0 0 0
15 1.59737 -0.77621 11.80517 0 0 0
16 2.50343 -1.03264 12.39409 0 0 0
17 2.67117 -1.06397 11.38697 0 0 0
18 2.31707 -0.88193 10.49606 0 0 0
19 2.80363 -1.42333 9.83450 0 0 0
20 2.97483 -2.31675 9.59622 0 0 0
21 3.93809 -2.49209 9.89794 0 0 0
22 4.86927 -2.57394 9.55305 0 0 0
23 4.93337 -2.81414 8.63198 0 0 0
24 4.66921 -3.21486 7.74882 0 0 0
25 4.19262 -3.68984 7.05855 0 0 0
26 -0.65030 -0.26339 12.35006 0 0 0
27 -1.48747 -0.62057 12.70100 0 0 0
28 -2.37862 -0.39620 13.10953 0 0 0
29 -3.19653 -0.87218 13.19412 0 0 0
30 -3.57048 -1.54885 12.64600 0 0 0
31 -4.45136 -1.80345 12.83502 0 0 0
32 -4.90497 -2.46115 12.38375 0 0 0
33 -5.21793 -3.30070 11.97130 0 0 0
34 -5.77241 -4.08319 12.17876 0 0 0
35 -6.10336 -5.01612 12.40347 0 0 0
36 -6.18958 -5.61700 11.66769 0 0 0
37 -5.40933 -5.25848 11.14893 0 0 0
38 -0.28870 0.94391 12.08128 0 0 0
39 -0.00877 1.90643 12.13654 0 0 0
40 -0.04903 2.82525 12.28554 0 0 0
41 -0.66227 3.06525 12.97380 0 0 0
42 -1.24432 3.35859 13.72620 0 0 0
43 -0.73828 3.09497 14.59499 0 0 0
44 -0.58075 3.54993 15.40533 0 0 0
45 -1.43993 3.74295 15.84049 0 0 0
46 -2.05297 3.45383 16.66216 0 0 0
47 -2.73984 3.13649 17.28546 0 0 0
48 -3.55497 3.55570 17.41490 0 0 0
49 -4.16820 3.85271 18.03730 0 0 0
50 -5.06002 3.78141 18.44289 0 0 0
51 -5.82860 3.92867 17.86405 0 0 0
52 -6.48856 3.30915 17.79753 0 0 0
53 -6.63840 3.65972 18.69712 0 0 0
54 -7.24227 2.88660 19.01150 0 0 0
55 -8.10407 2.51435 18.51112 0 0 0
56 -8.19364 1.61478 18.25187 0 0 0
57 -8.41160 1.23361 17.38551 0 0 0
58 -9.22157 0.64766 17.51411 0 0 0
59 -8.44514 0.09968 17.42599 0 0 0
60 -7.96059 0.41251 16.52818 0 0 0
61 -7.85993 1.09558 15.81844 0 0 0
62 -4.27846 4.77782 17.80594 0 0 0
63 -3.55816 5.28126 17.45068 0 0 0
64 -3.36343 6.00260 16.80712 0 0 0
65 -4.14297 6.61022 17.06572 0 0 0
66 -4.45735 7.23173 17.76119 0 0 0
67 -5.18340 7.36420 18.41477 0 0 0
68 -4.83847 8.28013 18.42679 0 0 0
69 -5.29080 9.07111 18.66162 0 0 0
70 -5.48880 9.82749 19.33421 0 0 0
71 -6.28367 9.96284 20.04722 0 0 0
72 -6.11960 8.98868 20.21620 0 0 0
73 -5.76269 8.39726 20.78015 0 0 0
74 -4.50690 2.95736 18.13762 0 0 0
75 -3.98815 2.09995 18.36414 0 0 0
76 -4.51974 1.75339 19.15123 0 0 0
77 -4.65910 1.55265 20.06421 0 0 0
78 -4.37706 0.72019 20.54402 0 0 0
79 -3.72138 0.11592 21.18504 0 0 0
80 -3.11732 -0.37647 21.78549 0 0 0
81 -2.27972 0.21400 22.13178 0 0 0
82 -2.53800 -0.48049 22.70052 0 0 0
83 -2.62004 -0.28848 23.66496 0 0 0
84 -2.21214 -0.12918 24.59131 0 0 0
85 -1.61928 -0.11439 25.30896 0 0 0
86 -1.86207 -1.01866 25.34430 0 0 0
87 -1.10959 -1.66374 25.34920 0 0 0
88 -0.10718 -2.08978 25.33885 0 0 0
89 -0.37893 -2.27544 26.33114 0 0 0
90 0.18931 -2.46405 27.10352 0 0 0
91 0.96945 -1.95611 27.42508 0 0 0
92 1.90586 -1.92536 27.59570 0 0 0
93 2.76570 -1.54084 27.35784 0 0 0
94 2.76237 -0.57565 27.56729 0 0 0
95 3.48901 -0.04679 27.91369 0 0 0
96 4.43803 0.19225 28.07182 0 0 0
97 4.91533 -0.38042 28.67755 0 0 0
98 -1.15043 0.13100 24.46674 0 0 0
99 -0.66495 -0.53716 23.96855 0 0 0
100 -0.45728 -0.03646 23.15266 0 0 0
101 0.50011 0.14263 23.11421 0 0 0
102 1.46992 -0.04709 23.45692 0 0 0
103 2.42410 -0.23619 23.48745 0 0 0
104 3.39763 -0.16596 23.71045 0 0 0
105 3.12157 -0.97228 24.11276 0 0 0
106 2.70117 -0.66308 24.89274 0 0 0
107 2.15252 0.01019 24.54770 0 0 0
108 2.74780 0.74995 24.09917 0 0 0
109 2.76855 0.82091 23.08904 0 0 0
110 -2.01711 -0.23149 26.13099 0 0 0
111 -2.32581 -1.04932 26.54832 0 0 0
112 -2.94435 -1.53173 27.24685 0 0 0
113 -2.51844 -2.46324 27.32051 0 0 0
114 -3.00986 -3.33190 27.13281 0 0 0
115 -3.69779 -4.00322 27.24930 0 0 0
116 -4.26212 -4.73062 27.72378 0 0 0
117 -4.51311 -5.58429 28.19185 0 0 0
118 -5.53883 -5.72675 28.13648 0 0 0
119 -5.90839 -6.60333 28.02094 0 0 0
120 -6.69515 -6.80213 28.52816 0 0 0
121 -7.60294 -6.66936 28.94563 0 0 0
122 -7.49382 -7.56841 29.34621 0 0 0
123 -7.80803 -8.44871 29.65627 0 0 0
124 -6.92068 -8.91221 29.71925 0 0 0
125 -6.19413 -9.38087 30.17418 0 0 0
126 -5.33701 -9.81927 30.56343 0 0 0
127 -4.53812 -9.43293 30.92579 0 0 0
128 -4.26821 -9.98076 31.74065 0 0 0
129 -4.89952 -10.00890 32.50359 0 0 0
130 -5.16644 -10.53439 31.72353 0 0 0
131 -5.98554 -11.08921 31.69390 0 0 0
132 -6.11004 -11.29910 32.65953 0 0 0
133 -5.27146 -11.85360 32.78984 0 0 0
134 -8.01367 -5.93326 28.37261 0 0 0
135 -8.88369 -5.71276 28.02617 0 0 0
136 -9.03579 -6.58685 27.52481 0 0 0
137 -10.00664 -6.70409 27.64748 0 0 0
138 -10.79135 -7.15145 27.41105 0 0 0
139 -10.74223 -6.96578 26.43917 0 0 0
140 -10.57661 -7.39961 25.51235 0 0 0
141 -11.12229 -8.14217 25.04266 0 0 0
142 -11.79023 -8.78122 24.82677 0 0 0
143 -12.69567 -8.69233 24.43539 0 0 0
144 -13.28917 -7.90940 24.51549 0 0 0
145 -13.53060 -7.43729 25.33013 0 0 0
146 -8.03153 -6.55771 29.77750 0 0 0
147 -8.41296 -6.45616 30.77212 0 0 0
148 -8.48815 -7.06212 31.47742 0 0 0
149 -9.09904 -7.69077 31.82089 0 0 0
150 -8.82037 -7.96334 32.67671 0 0 0
151 -8.61493 -7.87464 33.74400 0 0 0
152 -8.89620 -8.28211 34.55981 0 0 0
153 -9.15018 -8.27388 35.49708 0 0 0
154 -10.11750 -8.69885 35.36549 0 0 0
155 -10.43149 -9.57099 35.74846 0 0 0
156 -11.10718 -9.29536 36.36467 0 0 0
157 -11.95378 -9.65072 36.58918 0 0 0
158 -12.81814 -9.93254 36.35185 0 0 0
159 -13.55948 -9.37925 35.92634 0 0 0
160 -14.11536 -8.86892 35.35376 0 0 0
161 -14.90561 -9.45757 35.49270 0 0 0
162 -15.85052 -9.69731 35.72354 0 0 0
163 -16.69396 -10.16521 35.56016 0 0 0
164 -17.20623 -9.59950 36.13976 0 0 0
165 -18.20590 -9.64508 36.25317 0 0 0
166 -18.54945 -8.69698 36.24143 0 0 0
167 -19.59971 -8.63092 36.21099 0 0 0
168 -19.30269 -8.53605 35.23782 0 0 0
169 -19.35688 -7.62384 34.83241 0 0 0
170 -12.40416 -8.81601 36.86041 0 0 0
171 -12.83306 -8.23245 37.52232 0 0 0
172 -13.20697 -7.39006 37.72404 0 0 0
173 -13.10971 -6.69742 38.44022 0 0 0
174 -12.53041 -6.23388 39.01137 0 0 0
175 -12.97612 -5.51905 39.58137 0 0 0
176 -13.49818 -4.90098 40.14740 0 0 0
177 -13.67667 -4.38304 40.96751 0 0 0
178 -13.12664 -3.70034 40.72285 0 0 0
179 -12.81037 -3.60291 39.83341 0 0 0
180 -12.38463 -2.76362 39.99947 0 0 0
181 -11.67178 -1.91972 40.17500 0 0 0
182 -12.01465 -10.60066 36.36773 0 0 0
183 -11.38385 -10.11747 35.73842 0 0 0
184 -11.76565 -10.39615 34.90401 0 0 0
185 -11.61372 -10.21172 33.98641 0 0 0
186 -11.50071 -11.06285 33.52051 0 0 0
187 -11.54185 -12.00204 33.55271 0 0 0
188 -10.83585 -11.92603 34.26005 0 0 0
189 -11.29217 -12.07414 35.06515 0 0 0
190 -11.92024 -12.15169 35.91200 0 0 0
191 -11.91069 -11.67644 36.79013 0 0 0
192 -12.06720 -11.27200 37.73549 0 0 0
193 -12.44177 -10.57818 38.19445 0 0 0
ITEM: TIMESTEP
3000
ITEM: NUMBER OF ATOMS
193
ITEM: BOX BOUNDS pp pp pp
-1.0000000000000000e+03 1.0000000000000000e+03
-1.0000000000000000e+03 1.0000000000000000e+03
-1.0000000000000000e+03 1.0000000000000000e+03
ITEM: ATOMS id x y z ix iy iz
1 -4.04287 -3.25938 7.41609 0 0 0
2 -3.66125 -2.50662 7.98637 0 0 0
3 -2.65717 -2.54594 7.82082 0 0 0
4 -2.91018 -3.09654 8.66049 0 0 0
5 -2.74272 -2.13595 8.75280 0 0 0
6 -1.85267 -1.75941 9.11276 0 0 0
7 -0.86195 -1.57940 8.81343 0 0 0
8 0.11263 -1.44533 8.98428 0 0 0
9 -0.35205 -0.55899 8.88143 0 0 0
10 -0.46387 -0.43264 9.81903 0 0 0
11 -0.42116 -0.18725 10.70043 0 0 0
12 -1.04678 -0.33257 11.40204 0 0 0
13 -1.10257 -0.45892 12.45263 0 0 0
14 -0.45545 -1.11470 12.53424 0 0 0
15 0.21054 -1.63417 12.08493 0 0 0
16 0.72518 -2.21536 11.46001 0 0 0
17 0.90584 -1.88105 10.50819 0 0 0
18 1.88159 -2.11980 10.46932 0 0 0
19 2.58875 -2.49382 9.86257 0 0 0
20 3.36160 -3.00236 9.53696 0 0 0
21 4.08486 -3.00146 8.89688 0 0 0
22 4.08685 -3.81994 8.38260 0 0 0
23 3.19216 -3.98329 8.07219 0 0 0
24 3.61635 -4.63515 7.46899 0 0 0
25 2.86198 -4.36911 6.95677 0 0 0
26 -1.37194 -1.24504 12.97743 0 0 0
27 -1.42648 -2.21415 12.90895 0 0 0
28 -1.53273 -2.91000 13.57529 0 0 0
29 -1.41839 -3.36842 12.77256 0 0 0
30 -1.55288 -3.89876 11.79616 0 0 0
31 -0.72218 -4.23859 12.25156 0 0 0
32 -0.85981 -4.64040 11.41301 0 0 0
33 -1.31761 -5.38232 11.03952 0 0 0
34 -0.62324 -5.81147 10.29482 0 0 0
35 -0.68666 -6.80007 10.45426 0 0 0
36 -1.63240 -6.43575 10.10989 0 0 0
37 -2.18839 -6.07027 10.88359 0 0 0
38 -1.03288 0.10269 13.27867 0 0 0
39 -1.53778 0.80349 13.82453 0 0 0
40 -1.26984 1.72161 13.85462 0 0 0
41 -1.36749 2.33437 14.65759 0 0 0
42 -1.23698 2.42269 15.58420 0 0 0
43 -1.62659 2.29644 16.51662 0 0 0
44 -2.56127 1.98783 16.91522 0 0 0
45 -2.98126 2.47177 17.65402 0 0 0
46 -3.01241 3.12747 18.43182 0 0 0
47 -3.32414 3.49830 19.26310 0 0 0
48 -3.56019 4.45956 19.09516 0 0 0
49 -4.07911 5.00239 19.78127 0 0 0
50 -4.05889 4.02603 19.94881 0 0 0
51 -4.53623 3.39564 19.27666 0 0 0
52 -5.46569 3.61357 18.96502 0 0 0
53 -5.64659 4.16012 19.72632 0 0 0
54 -6.42475 4.72266 19.88989 0 0 0
55 -6.43110 5.53518 19.44400 0 0 0
56 -7.11790 5.59918 18.66545 0 0 0
57 -7.35232 4.74430 18.39370 0 0 0
58 -6.85555 3.91099 18.09224 0 0 0
59 -6.34172 3.07518 18.20142 0 0 0
60 -6.32450 2.23868 17.72541 0 0 0
61 -5.46702 2.47099 18.29604 0 0 0
62 -4.78177 5.48670 19.29570 0 0 0
63 -5.38422 5.46143 18.48241 0 0 0
64 -5.15888 5.93192 17.62401 0 0 0
65 -5.48950 6.85996 17.61325 0 0 0
66 -5.58142 7.52023 18.30061 0 0 0
67 -5.35724 7.56386 19.32423 0 0 0
68 -4.47384 8.01186 19.36642 0 0 0
69 -4.39063 8.39138 18.48910 0 0 0
70 -4.58214 9.15015 17.76841 0 0 0
71 -5.19199 9.56256 18.34632 0 0 0
72 -5.80450 9.30672 19.10945 0 0 0
73 -6.48583 8.66644 18.74510 0 0 0
74 -4.27349 4.80138 20.70078 0 0 0
75 -3.64290 4.09287 20.99200 0 0 0
76 -3.87976 3.16970 21.01774 0 0 0
77 -3.66873 2.28366 21.22443 0 0 0
78 -3.48583 2.22316 22.21191 0 0 0
79 -2.75291 1.80193 22.76937 0 0 0
80 -2.19560 1.06414 22.48427 0 0 0
81 -2.36110 0.36434 21.88784 0 0 0
82 -1.90275 -0.46831 21.96816 0 0 0
83 -2.41107 -1.01010 22.62897 0 0 0
84 -2.05707 -1.07988 23.55422 0 0 0
85 -1.43402 -0.90019 24.32787 0 0 0
86 -0.87116 -0.27546 24.86123 0 0 0
87 -0.51060 0.43623 25.39915 0 0 0
88 0.01538 0.49344 24.56042 0 0 0
89 0.53159 0.23249 25.34874 0 0 0
90 0.83669 0.82131 26.09123 0 0 0
91 1.54783 1.42605 26.60678 0 0 0
92 1.76890 2.34679 26.84873 0 0 0
93 1.87458 2.20328 27.76212 0 0 0
94 2.60628 2.62468 28.37672 0 0 0
95 2.43637 1.63220 28.52685 0 0 0
96 2.56879 0.70666 28.30821 0 0 0
97 2.67050 -0.34242 28.52402 0 0 0
98 -0.92113 -0.53944 23.63238 0 0 0
99 -0.42341 0.15632 23.13213 0 0 0
100 -0.33892 0.30643 22.11046 0 0 0
101 0.60206 0.35246 22.44569 0 0 0
102 1.04027 1.08512 22.93963 0 0 0
103 1.70289 1.67774 22.42679 0 0 0
104 1.94548 2.48866 22.90097 0 0 0
105 1.50108 2.51235 23.77239 0 0 0
106 1.34175 2.27309 24.64736 0 0 0
107 0.40317 2.31208 25.08265 0 0 0
108 -0.28410 2.48022 24.39431 0 0 0
109 -0.47657 2.18185 23.47111 0 0 0
110 -2.30670 -0.93084 24.77967 0 0 0
111 -2.64766 -0.91432 25.78462 0 0 0
112 -3.02391 -1.75101 25.74689 0 0 0
113 -3.12953 -2.58437 26.29490 0 0 0
114 -4.04445 -2.85845 26.10398 0 0 0
115 -4.60478 -3.63356 26.09221 0 0 0
116 -4.67889 -4.39124 26.65110 0 0 0
117 -5.06119 -5.26310 26.97584 0 0 0
118 -5.51910 -5.71817 27.83065 0 0 0
119 -6.19513 -6.34266 28.34439 0 0 0
120 -7.12306 -6.08786 28.46446 0 0 0
121 -7.07612 -6.48674 29.36653 0 0 0
122 -7.29939 -7.28770 29.84518 0 0 0
123 -7.84309 -8.08581 29.59181 0 0 0
124 -6.93286 -8.25334 29.27221 0 0 0
125 -6.74113 -9.14130 29.68545 0 0 0
126 -6.76164 -9.68815 30.53070 0 0 0
127 -6.08240 -9.26424 31.12452 0 0 0
128 -5.41548 -9.26378 31.86148 0 0 0
129 -5.50072 -8.44349 32.48795 0 0 0
130 -6.36079 -8.65850 32.15958 0 0 0
131 -7.42305 -8.55261 32.14252 0 0 0
132 -8.39138 -8.28692 32.18113 0 0 0
133 -8.58785 -9.14252 32.57030 0 0 0
134 -8.06352 -6.51017 29.64320 0 0 0
135 -8.67935 -7.26824 29.78390 0 0 0
136 -9.03384 -8.23548 29.55914 0 0 0
137 -8.84899 -8.74832 28.80685 0 0 0
138 -8.83347 -9.08395 27.86679 0 0 0
139 -9.18812 -8.29502 27.39568 0 0 0
140 -8.81192 -7.41350 27.15790 0 0 0
141 -9.80671 -7.34311 27.17635 0 0 0
142 -10.68968 -7.82804 27.20907 0 0 0
143 -11.52685 -7.86384 26.81604 0 0 0
144 -11.24962 -7.51971 25.95929 0 0 0
145 -11.24697 -7.73977 24.96915 0 0 0
146 -6.53633 -6.75594 30.18267 0 0 0
147 -7.27984 -6.12331 30.52849 0 0 0
148 -8.14027 -5.62231 30.59761 0 0 0
149 -8.80070 -6.26041 30.46638 0 0 0
150 -9.00408 -5.95345 31.37620 0 0 0
151 -9.84703 -6.49247 31.29909 0 0 0
152 -10.34966 -7.31500 31.51305 0 0 0
153 -10.94742 -8.02027 31.82275 0 0 0
154 -10.97087 -8.63834 32.62140 0 0 0
155 -11.17980 -8.30037 33.54140 0 0 0
156 -11.94171 -7.87062 33.94458 0 0 0
157 -12.17852 -7.53592 34.83668 0 0 0
158 -12.54284 -6.72081 34.49624 0 0 0
159 -13.04627 -7.31090 33.91163 0 0 0
160 -13.24143 -8.28880 34.09298 0 0 0
161 -13.28257 -9.21717 34.01952 0 0 0
162 -14.15639 -9.00253 34.43512 0 0 0
163 -14.99095 -8.53683 34.20894 0 0 0
164 -15.86727 -8.13308 34.34258 0 0 0
165 -16.68393 -7.62881 33.87043 0 0 0
166 -17.36444 -6.96347 33.91027 0 0 0
167 -16.78106 -6.17494 33.95613 0 0 0
168 -16.33527 -6.33881 34.85896 0 0 0
169 -15.41407 -6.73674 34.77414 0 0 0
170 -12.45207 -6.96289 35.63494 0 0 0
171 -12.97600 -6.95997 36.50013 0 0 0
172 -12.57287 -6.61871 37.31257 0 0 0
173 -11.82952 -6.89138 37.90975 0 0 0
174 -11.74253 -5.95857 37.68431 0 0 0
175 -11.26630 -5.14623 37.62890 0 0 0
176 -11.64652 -4.49204 38.31765 0 0 0
177 -11.60965 -4.89731 39.16110 0 0 0
178 -12.06796 -4.14542 39.58534 0 0 0
179 -12.86621 -3.94604 40.11411 0 0 0
180 -13.72938 -3.69143 39.89892 0 0 0
181 -14.54494 -3.83301 39.35803 0 0 0
182 -11.94952 -8.30986 35.35590 0 0 0
183 -11.65771 -9.16878 35.41436 0 0 0
184 -10.89764 -8.99609 34.87366 0 0 0
185 -10.65294 -9.87433 34.46312 0 0 0
186 -9.98480 -10.60103 34.36371 0 0 0
187 -9.48766 -11.24413 34.90199 0 0 0
188 -9.86534 -10.96453 35.72296 0 0 0
189 -9.87198 -11.31534 36.62584 0 0 0
190 -8.97100 -10.89040 36.55034 0 0 0
191 -8.50754 -10.18381 37.06204 0 0 0
192 -7.61602 -10.52815 37.00790 0 0 0
193 -7.25030 -11.39183 36.93502 0 0 0
ITEM: TIMESTEP
4000
ITEM: NUMBER OF ATOMS
193
ITEM: BOX BOUNDS pp pp pp
-1.0000000000000000e+03 1.0000000000000000e+03
-1.0000000000000000e+03 1.0000000000000000e+03
-1.0000000000000000e+03 1.0000000000000000e+03
ITEM: ATOMS id x y z ix iy iz
1 -4.29518 -4.95471 8.10503 0 0 0
2 -4.06180 -4.08656 8.43414 0 0 0
3 -4.16862 -3.82568 9.35946 0 0 0
4 -3.27500 -3.45400 9.47197 0 0 0
5 -2.43462 -3.32563 9.04781 0 0 0
6 -1.65202 -2.65028 9.22326 0 0 0
7 -2.01371 -1.78348 8.84437 0 0 0
8 -2.06703 -1.63638 9.79774 0 0 0
9 -2.39231 -0.78780 9.65366 0 0 0
10 -2.85170 -0.75623 10.59423 0 0 0
11 -2.40802 -0.68717 11.47012 0 0 0
12 -1.87626 -0.65567 12.22570 0 0 0
13 -0.99713 -0.48624 11.82813 0 0 0
14 -0.22294 -0.60790 11.08313 0 0 0
15 0.69689 -0.66416 10.88981 0 0 0
16 1.08704 -1.35563 11.44101 0 0 0
17 1.24061 -1.76616 10.49890 0 0 0
18 0.44184 -2.27198 10.87355 0 0 0
19 0.74279 -3.01076 11.53370 0 0 0
20 1.23650 -3.72954 11.13325 0 0 0
21 1.23185 -3.45201 10.18963 0 0 0
22 2.03098 -3.58264 9.60874 0 0 0
23 2.31901 -3.26912 8.70781 0 0 0