bb133nuc1bl66bn3d30tot200V2

199 atoms
198 bonds
198 angles

1 atom types
1 bond types
1 angle types

-1000 1000 xlo xhi
-1000 1000 ylo yhi
-1000 1000 zlo zhi

Masses

1 1

Atoms

1	1	1	0.0	0.0	0.0	0	0	0
2	1	1	0.0	0.0	1.0	0	0	0
3	1	1	0.0	-0.49999999999999994	1.8660254037844388	0	0	0
4	1	1	0.0	0.0	2.7320508075688776	0	0	0
5	1	1	0.0	-0.49999999999999994	3.5980762113533165	0	0	0
6	1	1	0.0	0.0	4.464101615137755	0	0	0
7	1	1	0.0	-0.49999999999999994	5.330127018922194	0	0	0
8	1	1	0.0	0.0	6.196152422706632	0	0	0
9	1	1	0.0	-0.49999999999999994	7.06217782649107	0	0	0
10	1	1	0.0	0.0	7.928203230275509	0	0	0
11	1	1	0.0	-0.49999999999999994	8.794228634059948	0	0	0
12	1	1	0.0	0.0	9.660254037844387	0	0	0
13	1	1	0.0	-0.49999999999999994	10.526279441628827	0	0	0
14	1	1	0.0	0.0	11.392304845413266	0	0	0
15	1	1	0.0	-0.49999999999999994	12.258330249197705	0	0	0
16	1	1	0.0	0.0	13.124355652982144	0	0	0
17	1	1	0.0	-0.49999999999999994	13.990381056766584	0	0	0
18	1	1	0.0	0.0	14.856406460551023	0	0	0
19	1	1	0.0	-0.49999999999999994	15.722431864335462	0	0	0
20	1	1	0.0	0.0	16.5884572681199	0	0	0
21	1	1	0.0	-0.49999999999999994	17.454482671904337	0	0	0
22	1	1	0.0	0.0	18.320508075688775	0	0	0
23	1	1	0.0	-0.49999999999999994	19.186533479473212	0	0	0
24	1	1	0.0	0.0	20.05255888325765	0	0	0
25	1	1	0.0	-0.49999999999999994	20.918584287042087	0	0	0
26	1	1	0.0	0.0	21.784609690826525	0	0	0
27	1	1	0.0	-0.49999999999999994	22.650635094610962	0	0	0
28	1	1	0.0	0.0	23.5166604983954	0	0	0
29	1	1	0.0	-0.49999999999999994	24.382685902179837	0	0	0
30	1	1	0.0	0.0	25.248711305964274	0	0	0
31	1	1	0.0	-0.49999999999999994	26.114736709748712	0	0	0
32	1	1	0.0	0.0	26.98076211353315	0	0	0
33	1	1	0.0	-0.49999999999999994	27.846787517317587	0	0	0
34	1	1	0.0	0.0	28.712812921102024	0	0	0
35	1	1	0.0	-0.49999999999999994	29.578838324886462	0	0	0
36	1	1	0.0	0.0	30.4448637286709	0	0	0
37	1	1	0.0	-0.49999999999999994	31.310889132455337	0	0	0
38	1	1	0.0	0.0	32.17691453623978	0	0	0
39	1	1	0.0	-0.49999999999999994	33.04293994002422	0	0	0
40	1	1	0.0	0.0	33.90896534380866	0	0	0
41	1	1	0.0	-0.49999999999999994	34.7749907475931	0	0	0
42	1	1	0.0	0.0	35.64101615137754	0	0	0
43	1	1	0.0	-0.49999999999999994	36.50704155516198	0	0	0
44	1	1	0.0	0.0	37.373066958946424	0	0	0
45	1	1	0.0	-0.49999999999999994	38.239092362730865	0	0	0
46	1	1	0.0	0.0	39.105117766515306	0	0	0
47	1	1	0.0	-0.49999999999999994	39.97114317029975	0	0	0
48	1	1	0.0	0.0	40.83716857408419	0	0	0
49	1	1	0.0	-0.49999999999999994	41.70319397786863	0	0	0
50	1	1	0.0	0.0	42.56921938165307	0	0	0
51	1	1	0.0	-0.49999999999999994	43.43524478543751	0	0	0
52	1	1	0.0	0.0	44.30127018922195	0	0	0
53	1	1	0.0	-0.49999999999999994	45.16729559300639	0	0	0
54	1	1	0.0	0.0	46.033320996790835	0	0	0
55	1	1	0.0	-0.49999999999999994	46.899346400575276	0	0	0
56	1	1	0.0	0.0	47.76537180435972	0	0	0
57	1	1	0.0	-0.49999999999999994	48.63139720814416	0	0	0
58	1	1	0.0	0.0	49.4974226119286	0	0	0
59	1	1	0.0	-0.49999999999999994	50.36344801571304	0	0	0
60	1	1	0.0	0.0	51.22947341949748	0	0	0
61	1	1	0.0	-0.49999999999999994	52.09549882328192	0	0	0
62	1	1	0.0	0.0	52.96152422706636	0	0	0
63	1	1	0.0	-0.49999999999999994	53.827549630850804	0	0	0
64	1	1	0.0	0.0	54.693575034635245	0	0	0
65	1	1	0.0	-0.49999999999999994	55.559600438419686	0	0	0
66	1	1	0.0	0.0	56.42562584220413	0	0	0
67	1	1	0.0	-0.49999999999999994	57.29165124598857	0	0	0
68	1	1	0.5062227674225617	-0.1414740085195329	58.07599659287092	0	0	0
69	1	1	1.0124455348451225	-0.22315406542162036	58.934522584351384	0	0	0
70	1	1	1.5186683022676832	0.4795112245586413	59.434522584351384	0	0	0
71	1	1	2.024891069690244	0.39783116765655385	60.29304857583185	0	0	0
72	1	1	2.531113837112805	1.1004964576368155	60.79304857583185	0	0	0
73	1	1	3.0373366045353656	1.018816400734728	61.65157456731231	0	0	0
74	1	1	3.5435593719579264	1.7214816907149897	62.15157456731231	0	0	0
75	1	1	4.049782139380487	1.6398016338129022	63.01010055879277	0	0	0
76	1	1	4.5560049068030475	2.3424669237931637	63.51010055879277	0	0	0
77	1	1	5.062227674225608	2.260786866891076	64.36862655027323	0	0	0
78	1	1	5.568450441648168	2.963452156871338	64.86862655027323	0	0	0
79	1	1	6.0746732090707285	2.8817720999692504	65.7271525417537	0	0	0
80	1	1	6.580895976493289	3.584437389949512	66.2271525417537	0	0	0
81	1	1	7.087118743915849	3.5027573330474246	67.08567853323416	0	0	0
82	1	1	7.5933415113384095	4.205422623027687	67.58567853323416	0	0	0
83	1	1	8.09956427876097	4.123742566125599	68.44420452471462	0	0	0
84	1	1	8.605787046183531	4.8264078561058605	68.94420452471462	0	0	0
85	1	1	9.112009813606091	4.744727799203773	69.80273051619508	0	0	0
86	1	1	9.618232581028652	5.447393089184034	70.30273051619508	0	0	0
87	1	1	10.124455348451212	5.365713032281946	71.16125650767555	0	0	0
88	1	1	10.630678115873772	6.068378322262208	71.66125650767555	0	0	0
89	1	1	11.136900883296333	5.98669826536012	72.51978249915601	0	0	0
90	1	1	11.643123650718893	6.689363555340382	73.01978249915601	0	0	0
91	1	1	12.149346418141453	6.607683498438294	73.87830849063647	0	0	0
92	1	1	12.655569185564014	7.310348788418556	74.37830849063647	0	0	0
93	1	1	13.161791952986574	7.228668731516468	75.23683448211693	0	0	0
94	1	1	13.668014720409134	7.931334021496729	75.73683448211693	0	0	0
95	1	1	14.174237487831695	7.8496539645946415	76.5953604735974	0	0	0
96	1	1	14.680460255254255	8.552319254574904	77.0953604735974	0	0	0
97	1	1	15.186683022676815	8.470639197672817	77.95388646507786	0	0	0
98	1	1	15.692905790099376	9.173304487653079	78.45388646507786	0	0	0
99	1	1	16.199128557521938	9.091624430750992	79.31241245655832	0	0	0
100	1	1	16.7053513249445	9.794289720731253	79.81241245655832	0	0	0
101	1	1	17.21157409236706	9.712609663829166	80.67093844803878	0	0	0
102	1	1	17.71779685978962	10.415274953809428	81.17093844803878	0	0	0
103	1	1	18.22401962721218	10.333594896907341	82.02946443951924	0	0	0
104	1	1	18.73024239463474	11.036260186887603	82.52946443951924	0	0	0
105	1	1	19.2364651620573	10.954580129985516	83.38799043099971	0	0	0
106	1	1	19.74268792947986	11.657245419965777	83.88799043099971	0	0	0
107	1	1	20.24891069690242	11.57556536306369	84.74651642248017	0	0	0
108	1	1	20.75513346432498	12.278230653043952	85.24651642248017	0	0	0
109	1	1	21.26135623174754	12.196550596141865	86.10504241396063	0	0	0
110	1	1	21.7675789991701	12.899215886122127	86.60504241396063	0	0	0
111	1	1	22.273801766592662	12.81753582922004	87.4635684054411	0	0	0
112	1	1	22.780024534015222	13.520201119200301	87.9635684054411	0	0	0
113	1	1	23.286247301437783	13.438521062298214	88.82209439692156	0	0	0
114	1	1	23.792470068860343	14.141186352278476	89.32209439692156	0	0	0
115	1	1	24.298692836282903	14.059506295376389	90.18062038840202	0	0	0
116	1	1	24.804915603705464	14.76217158535665	90.68062038840202	0	0	0
117	1	1	25.311138371128024	14.680491528454564	91.53914637988248	0	0	0
118	1	1	25.817361138550584	15.383156818434825	92.03914637988248	0	0	0
119	1	1	26.323583905973145	15.301476761532738	92.89767237136294	0	0	0
120	1	1	26.829806673395705	16.004142051513	93.39767237136294	0	0	0
121	1	1	27.336029440818265	15.922461994610913	94.2561983628434	0	0	0
122	1	1	27.842252208240826	16.625127284591173	94.7561983628434	0	0	0
123	1	1	28.348474975663386	16.543447227689086	95.61472435432387	0	0	0
124	1	1	28.854697743085946	17.246112517669346	96.11472435432387	0	0	0
125	1	1	29.360920510508507	17.16443246076726	96.97325034580433	0	0	0
126	1	1	29.867143277931067	17.86709775074752	97.47325034580433	0	0	0
127	1	1	30.373366045353627	17.78541769384543	98.3317763372848	0	0	0
128	1	1	30.879588812776188	18.48808298382569	98.8317763372848	0	0	0
129	1	1	31.385811580198748	18.406402926923604	99.69030232876526	0	0	0
130	1	1	31.89203434762131	19.109068216903864	100.19030232876526	0	0	0
131	1	1	32.39825711504387	19.027388160001777	101.04882832024572	0	0	0
132	1	1	32.90447988246643	19.730053449982037	101.54882832024572	0	0	0
133	1	1	33.410702649889	19.64837339307995	102.40735431172618	0	0	0
134	1	1	-0.5062227674225614	-1.3585259914804668	57.373331302890655	0	0	0
135	1	1	-1.012445534845122	-2.1428713383628173	57.01480531141019	0	0	0
136	1	1	-1.5186683022676823	-2.845536628343077	57.51480531141019	0	0	0
137	1	1	-2.0248910696902427	-3.6298819752254277	57.15627931992973	0	0	0
138	1	1	-2.531113837112803	-4.332547265205688	57.65627931992973	0	0	0
139	1	1	-3.0373366045353634	-5.116892612088038	57.29775332844927	0	0	0
140	1	1	-3.5435593719579237	-5.819557902068298	57.79775332844927	0	0	0
141	1	1	-4.0497821393804845	-6.603903248950648	57.439227336968806	0	0	0
142	1	1	-4.556004906803045	-7.306568538930908	57.939227336968806	0	0	0
143	1	1	-5.062227674225605	-8.09091388581326	57.58070134548834	0	0	0
144	1	1	-5.5684504416481655	-8.79357917579352	58.08070134548834	0	0	0
145	1	1	-6.074673209070726	-9.57792452267587	57.72217535400788	0	0	0
146	1	1	-6.580895976493286	-10.28058981265613	58.22217535400788	0	0	0
147	1	1	-7.0871187439158465	-11.06493515953848	57.86364936252742	0	0	0
148	1	1	-7.593341511338407	-11.76760044951874	58.36364936252742	0	0	0
149	1	1	-8.099564278760967	-12.55194579640109	58.005123371046956	0	0	0
150	1	1	-8.605787046183528	-13.25461108638135	58.505123371046956	0	0	0
151	1	1	-9.112009813606088	-14.038956433263701	58.146597379566494	0	0	0
152	1	1	-9.618232581028648	-14.741621723243961	58.646597379566494	0	0	0
153	1	1	-10.124455348451209	-15.525967070126311	58.28807138808603	0	0	0
154	1	1	-10.630678115873769	-16.228632360106573	58.78807138808603	0	0	0
155	1	1	-11.13690088329633	-17.012977706988924	58.42954539660557	0	0	0
156	1	1	-11.64312365071889	-17.715642996969184	58.92954539660557	0	0	0
157	1	1	-12.14934641814145	-18.499988343851534	58.57101940512511	0	0	0
158	1	1	-12.65556918556401	-19.202653633831794	59.07101940512511	0	0	0
159	1	1	-13.16179195298657	-19.986998980714144	58.712493413644644	0	0	0
160	1	1	-13.668014720409131	-20.689664270694404	59.212493413644644	0	0	0
161	1	1	-14.174237487831691	-21.474009617576755	58.85396742216418	0	0	0
162	1	1	-14.680460255254252	-22.176674907557015	59.35396742216418	0	0	0
163	1	1	-15.186683022676812	-22.961020254439365	58.99544143068372	0	0	0
164	1	1	-15.692905790099372	-23.663685544419625	59.49544143068372	0	0	0
165	1	1	-16.199128557521934	-24.448030891301975	59.13691543920326	0	0	0
166	1	1	-16.705351324944495	-25.150696181282235	59.63691543920326	0	0	0
167	1	1	-17.211574092367055	-25.935041528164586	59.278389447722795	0	0	0
168	1	1	-17.717796859789615	-26.637706818144846	59.778389447722795	0	0	0
169	1	1	-18.224019627212176	-27.422052165027196	59.41986345624233	0	0	0
170	1	1	-18.730242394634736	-28.124717455007456	59.91986345624233	0	0	0
171	1	1	-19.236465162057296	-28.909062801889807	59.56133746476187	0	0	0
172	1	1	-19.742687929479857	-29.611728091870066	60.06133746476187	0	0	0
173	1	1	-20.248910696902417	-30.396073438752417	59.70281147328141	0	0	0
174	1	1	-20.755133464324977	-31.098738728732677	60.20281147328141	0	0	0
175	1	1	-21.261356231747538	-31.883084075615027	59.844285481800945	0	0	0
176	1	1	-21.767578999170098	-32.58574936559529	60.344285481800945	0	0	0
177	1	1	-22.27380176659266	-33.370094712477645	59.98575949032048	0	0	0
178	1	1	-22.78002453401522	-34.072760002457905	60.48575949032048	0	0	0
179	1	1	-23.28624730143778	-34.85710534934026	60.12723349884002	0	0	0
180	1	1	-23.79247006886034	-35.55977063932052	60.62723349884002	0	0	0
181	1	1	-24.2986928362829	-36.34411598620287	60.26870750735956	0	0	0
182	1	1	-24.80491560370546	-37.04678127618313	60.76870750735956	0	0	0
183	1	1	-25.31113837112802	-37.83112662306549	60.410181515879096	0	0	0
184	1	1	-25.81736113855058	-38.53379191304575	60.910181515879096	0	0	0
185	1	1	-26.32358390597314	-39.3181372599281	60.55165552439863	0	0	0
186	1	1	-26.8298066733957	-40.02080254990836	61.05165552439863	0	0	0
187	1	1	-27.336029440818262	-40.805147896790714	60.69312953291817	0	0	0
188	1	1	-27.842252208240822	-41.507813186770974	61.19312953291817	0	0	0
189	1	1	-28.348474975663382	-42.29215853365333	60.83460354143771	0	0	0
190	1	1	-28.854697743085943	-42.99482382363359	61.33460354143771	0	0	0
191	1	1	-29.360920510508503	-43.77916917051594	60.976077549957246	0	0	0
192	1	1	-29.867143277931063	-44.4818344604962	61.476077549957246	0	0	0
193	1	1	-30.373366045353624	-45.266179807378556	61.117551558476784	0	0	0
194	1	1	-30.879588812776184	-45.968845097358816	61.617551558476784	0	0	0
195	1	1	-31.385811580198745	-46.75319044424117	61.25902556699632	0	0	0
196	1	1	-31.892034347621305	-47.45585573422143	61.75902556699632	0	0	0
197	1	1	-32.39825711504387	-48.240201081103784	61.40049957551586	0	0	0
198	1	1	-32.90447988246643	-48.942866371084044	61.90049957551586	0	0	0
199	1	1	-33.410702649889	-49.7272117179664	61.5419735840354	0	0	0

Bonds

1	1	1	2
2	1	2	3
3	1	3	4
4	1	4	5
5	1	5	6
6	1	6	7
7	1	7	8
8	1	8	9
9	1	9	10
10	1	10	11
11	1	11	12
12	1	12	13
13	1	13	14
14	1	14	15
15	1	15	16
16	1	16	17
17	1	17	18
18	1	18	19
19	1	19	20
20	1	20	21
21	1	21	22
22	1	22	23
23	1	23	24
24	1	24	25
25	1	25	26
26	1	26	27
27	1	27	28
28	1	28	29
29	1	29	30
30	1	30	31
31	1	31	32
32	1	32	33
33	1	33	34
34	1	34	35
35	1	35	36
36	1	36	37
37	1	37	38
38	1	38	39
39	1	39	40
40	1	40	41
41	1	41	42
42	1	42	43
43	1	43	44
44	1	44	45
45	1	45	46
46	1	46	47
47	1	47	48
48	1	48	49
49	1	49	50
50	1	50	51
51	1	51	52
52	1	52	53
53	1	53	54
54	1	54	55
55	1	55	56
56	1	56	57
57	1	57	58
58	1	58	59
59	1	59	60
60	1	60	61
61	1	61	62
62	1	62	63
63	1	63	64
64	1	64	65
65	1	65	66
66	1	66	67
67	1	67	68
68	1	67	134
69	1	68	69
70	1	69	70
71	1	70	71
72	1	71	72
73	1	72	73
74	1	73	74
75	1	74	75
76	1	75	76
77	1	76	77
78	1	77	78
79	1	78	79
80	1	79	80
81	1	80	81
82	1	81	82
83	1	82	83
84	1	83	84
85	1	84	85
86	1	85	86
87	1	86	87
88	1	87	88
89	1	88	89
90	1	89	90
91	1	90	91
92	1	91	92
93	1	92	93
94	1	93	94
95	1	94	95
96	1	95	96
97	1	96	97
98	1	97	98
99	1	98	99
100	1	99	100
101	1	100	101
102	1	101	102
103	1	102	103
104	1	103	104
105	1	104	105
106	1	105	106
107	1	106	107
108	1	107	108
109	1	108	109
110	1	109	110
111	1	110	111
112	1	111	112
113	1	112	113
114	1	113	114
115	1	114	115
116	1	115	116
117	1	116	117
118	1	117	118
119	1	118	119
120	1	119	120
121	1	120	121
122	1	121	122
123	1	122	123
124	1	123	124
125	1	124	125
126	1	125	126
127	1	126	127
128	1	127	128
129	1	128	129
130	1	129	130
131	1	130	131
132	1	131	132
133	1	132	133
134	1	134	135
135	1	135	136
136	1	136	137
137	1	137	138
138	1	138	139
139	1	139	140
140	1	140	141
141	1	141	142
142	1	142	143
143	1	143	144
144	1	144	145
145	1	145	146
146	1	146	147
147	1	147	148
148	1	148	149
149	1	149	150
150	1	150	151
151	1	151	152
152	1	152	153
153	1	153	154
154	1	154	155
155	1	155	156
156	1	156	157
157	1	157	158
158	1	158	159
159	1	159	160
160	1	160	161
161	1	161	162
162	1	162	163
163	1	163	164
164	1	164	165
165	1	165	166
166	1	166	167
167	1	167	168
168	1	168	169
169	1	169	170
170	1	170	171
171	1	171	172
172	1	172	173
173	1	173	174
174	1	174	175
175	1	175	176
176	1	176	177
177	1	177	178
178	1	178	179
179	1	179	180
180	1	180	181
181	1	181	182
182	1	182	183
183	1	183	184
184	1	184	185
185	1	185	186
186	1	186	187
187	1	187	188
188	1	188	189
189	1	189	190
190	1	190	191
191	1	191	192
192	1	192	193
193	1	193	194
194	1	194	195
195	1	195	196
196	1	196	197
197	1	197	198
198	1	198	199

Angles

1	1	1	2	3
2	1	2	3	4
3	1	3	4	5
4	1	4	5	6
5	1	5	6	7
6	1	6	7	8
7	1	7	8	9
8	1	8	9	10
9	1	9	10	11
10	1	10	11	12
11	1	11	12	13
12	1	12	13	14
13	1	13	14	15
14	1	14	15	16
15	1	15	16	17
16	1	16	17	18
17	1	17	18	19
18	1	18	19	20
19	1	19	20	21
20	1	20	21	22
21	1	21	22	23
22	1	22	23	24
23	1	23	24	25
24	1	24	25	26
25	1	25	26	27
26	1	26	27	28
27	1	27	28	29
28	1	28	29	30
29	1	29	30	31
30	1	30	31	32
31	1	31	32	33
32	1	32	33	34
33	1	33	34	35
34	1	34	35	36
35	1	35	36	37
36	1	36	37	38
37	1	37	38	39
38	1	38	39	40
39	1	39	40	41
40	1	40	41	42
41	1	41	42	43
42	1	42	43	44
43	1	43	44	45
44	1	44	45	46
45	1	45	46	47
46	1	46	47	48
47	1	47	48	49
48	1	48	49	50
49	1	49	50	51
50	1	50	51	52
51	1	51	52	53
52	1	52	53	54
53	1	53	54	55
54	1	54	55	56
55	1	55	56	57
56	1	56	57	58
57	1	57	58	59
58	1	58	59	60
59	1	59	60	61
60	1	60	61	62
61	1	61	62	63
62	1	62	63	64
63	1	63	64	65
64	1	64	65	66
65	1	65	66	67
66	1	66	67	68
67	1	66	67	134
68	1	67	68	69
69	1	67	134	135
70	1	68	67	134
71	1	68	69	70
72	1	69	70	71
73	1	70	71	72
74	1	71	72	73
75	1	72	73	74
76	1	73	74	75
77	1	74	75	76
78	1	75	76	77
79	1	76	77	78
80	1	77	78	79
81	1	78	79	80
82	1	79	80	81
83	1	80	81	82
84	1	81	82	83
85	1	82	83	84
86	1	83	84	85
87	1	84	85	86
88	1	85	86	87
89	1	86	87	88
90	1	87	88	89
91	1	88	89	90
92	1	89	90	91
93	1	90	91	92
94	1	91	92	93
95	1	92	93	94
96	1	93	94	95
97	1	94	95	96
98	1	95	96	97
99	1	96	97	98
100	1	97	98	99
101	1	98	99	100
102	1	99	100	101
103	1	100	101	102
104	1	101	102	103
105	1	102	103	104
106	1	103	104	105
107	1	104	105	106
108	1	105	106	107
109	1	106	107	108
110	1	107	108	109
111	1	108	109	110
112	1	109	110	111
113	1	110	111	112
114	1	111	112	113
115	1	112	113	114
116	1	113	114	115
117	1	114	115	116
118	1	115	116	117
119	1	116	117	118
120	1	117	118	119
121	1	118	119	120
122	1	119	120	121
123	1	120	121	122
124	1	121	122	123
125	1	122	123	124
126	1	123	124	125
127	1	124	125	126
128	1	125	126	127
129	1	126	127	128
130	1	127	128	129
131	1	128	129	130
132	1	129	130	131
133	1	130	131	132
134	1	131	132	133
135	1	134	135	136
136	1	135	136	137
137	1	136	137	138
138	1	137	138	139
139	1	138	139	140
140	1	139	140	141
141	1	140	141	142
142	1	141	142	143
143	1	142	143	144
144	1	143	144	145
145	1	144	145	146
146	1	145	146	147
147	1	146	147	148
148	1	147	148	149
149	1	148	149	150
150	1	149	150	151
151	1	150	151	152
152	1	151	152	153
153	1	152	153	154
154	1	153	154	155
155	1	154	155	156
156	1	155	156	157
157	1	156	157	158
158	1	157	158	159
159	1	158	159	160
160	1	159	160	161
161	1	160	161	162
162	1	161	162	163
163	1	162	163	164
164	1	163	164	165
165	1	164	165	166
166	1	165	166	167
167	1	166	167	168
168	1	167	168	169
169	1	168	169	170
170	1	169	170	171
171	1	170	171	172
172	1	171	172	173
173	1	172	173	174
174	1	173	174	175
175	1	174	175	176
176	1	175	176	177
177	1	176	177	178
178	1	177	178	179
179	1	178	179	180
180	1	179	180	181
181	1	180	181	182
182	1	181	182	183
183	1	182	183	184
184	1	183	184	185
185	1	184	185	186
186	1	185	186	187
187	1	186	187	188
188	1	187	188	189
189	1	188	189	190
190	1	189	190	191
191	1	190	191	192
192	1	191	192	193
193	1	192	193	194
194	1	193	194	195
195	1	194	195	196
196	1	195	196	197
197	1	196	197	198
198	1	197	198	199
