bb200nuc1bl100bn3d30tot300V2

301 atoms
300 bonds
300 angles

1 atom types
1 bond types
1 angle types

-1000 1000 xlo xhi
-1000 1000 ylo yhi
-1000 1000 zlo zhi

Masses

1 1

Atoms

1	1	1	0.0	0.0	0.0	0	0	0
2	1	1	0.0	0.0	1.0	0	0	0
3	1	1	0.0	-0.49999999999999994	1.8660254037844388	0	0	0
4	1	1	0.0	0.0	2.7320508075688776	0	0	0
5	1	1	0.0	-0.49999999999999994	3.5980762113533165	0	0	0
6	1	1	0.0	0.0	4.464101615137755	0	0	0
7	1	1	0.0	-0.49999999999999994	5.330127018922194	0	0	0
8	1	1	0.0	0.0	6.196152422706632	0	0	0
9	1	1	0.0	-0.49999999999999994	7.06217782649107	0	0	0
10	1	1	0.0	0.0	7.928203230275509	0	0	0
11	1	1	0.0	-0.49999999999999994	8.794228634059948	0	0	0
12	1	1	0.0	0.0	9.660254037844387	0	0	0
13	1	1	0.0	-0.49999999999999994	10.526279441628827	0	0	0
14	1	1	0.0	0.0	11.392304845413266	0	0	0
15	1	1	0.0	-0.49999999999999994	12.258330249197705	0	0	0
16	1	1	0.0	0.0	13.124355652982144	0	0	0
17	1	1	0.0	-0.49999999999999994	13.990381056766584	0	0	0
18	1	1	0.0	0.0	14.856406460551023	0	0	0
19	1	1	0.0	-0.49999999999999994	15.722431864335462	0	0	0
20	1	1	0.0	0.0	16.5884572681199	0	0	0
21	1	1	0.0	-0.49999999999999994	17.454482671904337	0	0	0
22	1	1	0.0	0.0	18.320508075688775	0	0	0
23	1	1	0.0	-0.49999999999999994	19.186533479473212	0	0	0
24	1	1	0.0	0.0	20.05255888325765	0	0	0
25	1	1	0.0	-0.49999999999999994	20.918584287042087	0	0	0
26	1	1	0.0	0.0	21.784609690826525	0	0	0
27	1	1	0.0	-0.49999999999999994	22.650635094610962	0	0	0
28	1	1	0.0	0.0	23.5166604983954	0	0	0
29	1	1	0.0	-0.49999999999999994	24.382685902179837	0	0	0
30	1	1	0.0	0.0	25.248711305964274	0	0	0
31	1	1	0.0	-0.49999999999999994	26.114736709748712	0	0	0
32	1	1	0.0	0.0	26.98076211353315	0	0	0
33	1	1	0.0	-0.49999999999999994	27.846787517317587	0	0	0
34	1	1	0.0	0.0	28.712812921102024	0	0	0
35	1	1	0.0	-0.49999999999999994	29.578838324886462	0	0	0
36	1	1	0.0	0.0	30.4448637286709	0	0	0
37	1	1	0.0	-0.49999999999999994	31.310889132455337	0	0	0
38	1	1	0.0	0.0	32.17691453623978	0	0	0
39	1	1	0.0	-0.49999999999999994	33.04293994002422	0	0	0
40	1	1	0.0	0.0	33.90896534380866	0	0	0
41	1	1	0.0	-0.49999999999999994	34.7749907475931	0	0	0
42	1	1	0.0	0.0	35.64101615137754	0	0	0
43	1	1	0.0	-0.49999999999999994	36.50704155516198	0	0	0
44	1	1	0.0	0.0	37.373066958946424	0	0	0
45	1	1	0.0	-0.49999999999999994	38.239092362730865	0	0	0
46	1	1	0.0	0.0	39.105117766515306	0	0	0
47	1	1	0.0	-0.49999999999999994	39.97114317029975	0	0	0
48	1	1	0.0	0.0	40.83716857408419	0	0	0
49	1	1	0.0	-0.49999999999999994	41.70319397786863	0	0	0
50	1	1	0.0	0.0	42.56921938165307	0	0	0
51	1	1	0.0	-0.49999999999999994	43.43524478543751	0	0	0
52	1	1	0.0	0.0	44.30127018922195	0	0	0
53	1	1	0.0	-0.49999999999999994	45.16729559300639	0	0	0
54	1	1	0.0	0.0	46.033320996790835	0	0	0
55	1	1	0.0	-0.49999999999999994	46.899346400575276	0	0	0
56	1	1	0.0	0.0	47.76537180435972	0	0	0
57	1	1	0.0	-0.49999999999999994	48.63139720814416	0	0	0
58	1	1	0.0	0.0	49.4974226119286	0	0	0
59	1	1	0.0	-0.49999999999999994	50.36344801571304	0	0	0
60	1	1	0.0	0.0	51.22947341949748	0	0	0
61	1	1	0.0	-0.49999999999999994	52.09549882328192	0	0	0
62	1	1	0.0	0.0	52.96152422706636	0	0	0
63	1	1	0.0	-0.49999999999999994	53.827549630850804	0	0	0
64	1	1	0.0	0.0	54.693575034635245	0	0	0
65	1	1	0.0	-0.49999999999999994	55.559600438419686	0	0	0
66	1	1	0.0	0.0	56.42562584220413	0	0	0
67	1	1	0.0	-0.49999999999999994	57.29165124598857	0	0	0
68	1	1	0.0	0.0	58.15767664977301	0	0	0
69	1	1	0.0	-0.49999999999999994	59.02370205355745	0	0	0
70	1	1	0.0	0.0	59.88972745734189	0	0	0
71	1	1	0.0	-0.49999999999999994	60.75575286112633	0	0	0
72	1	1	0.0	0.0	61.62177826491077	0	0	0
73	1	1	0.0	-0.49999999999999994	62.487803668695214	0	0	0
74	1	1	0.0	0.0	63.353829072479655	0	0	0
75	1	1	0.0	-0.49999999999999994	64.21985447626409	0	0	0
76	1	1	0.0	0.0	65.08587988004852	0	0	0
77	1	1	0.0	-0.49999999999999994	65.95190528383296	0	0	0
78	1	1	0.0	0.0	66.81793068761739	0	0	0
79	1	1	0.0	-0.49999999999999994	67.68395609140183	0	0	0
80	1	1	0.0	0.0	68.54998149518626	0	0	0
81	1	1	0.0	-0.49999999999999994	69.41600689897069	0	0	0
82	1	1	0.0	0.0	70.28203230275513	0	0	0
83	1	1	0.0	-0.49999999999999994	71.14805770653956	0	0	0
84	1	1	0.0	0.0	72.014083110324	0	0	0
85	1	1	0.0	-0.49999999999999994	72.88010851410843	0	0	0
86	1	1	0.0	0.0	73.74613391789286	0	0	0
87	1	1	0.0	-0.49999999999999994	74.6121593216773	0	0	0
88	1	1	0.0	0.0	75.47818472546173	0	0	0
89	1	1	0.0	-0.49999999999999994	76.34421012924616	0	0	0
90	1	1	0.0	0.0	77.2102355330306	0	0	0
91	1	1	0.0	-0.49999999999999994	78.07626093681503	0	0	0
92	1	1	0.0	0.0	78.94228634059947	0	0	0
93	1	1	0.0	-0.49999999999999994	79.8083117443839	0	0	0
94	1	1	0.0	0.0	80.67433714816833	0	0	0
95	1	1	0.0	-0.49999999999999994	81.54036255195277	0	0	0
96	1	1	0.0	0.0	82.4063879557372	0	0	0
97	1	1	0.0	-0.49999999999999994	83.27241335952164	0	0	0
98	1	1	0.0	0.0	84.13843876330607	0	0	0
99	1	1	0.0	-0.49999999999999994	85.0044641670905	0	0	0
100	1	1	0.0	0.0	85.87048957087494	0	0	0
101	1	1	0.0	-0.49999999999999994	86.73651497465937	0	0	0
102	1	1	0.7857712601598678	-0.4346864337995025	87.35157404887659	0	0	0
103	1	1	1.5715425203197388	-0.685652763366724	87.91688761507709	0	0	0
104	1	1	2.35731378047961	-0.32156001871672724	88.41688761507709	0	0	0
105	1	1	3.143085040639481	-0.5725263482839487	88.98220118127759	0	0	0
106	1	1	3.9288563007993518	-0.2084336036339519	89.48220118127759	0	0	0
107	1	1	4.714627560959222	-0.45939993320117334	90.04751474747809	0	0	0
108	1	1	5.500398821119093	-0.09530718855117659	90.54751474747809	0	0	0
109	1	1	6.286170081278964	-0.346273518118398	91.11282831367859	0	0	0
110	1	1	7.071941341438835	0.01781922653159873	91.61282831367859	0	0	0
111	1	1	7.857712601598706	-0.2331471030356227	92.17814187987909	0	0	0
112	1	1	8.643483861758577	0.13094564161437405	92.67814187987909	0	0	0
113	1	1	9.429255121918448	-0.12002068795284737	93.2434554460796	0	0	0
114	1	1	10.21502638207832	0.24407205669714938	93.7434554460796	0	0	0
115	1	1	11.00079764223819	-0.006894272870072049	94.3087690122801	0	0	0
116	1	1	11.786568902398061	0.3571984717799247	94.8087690122801	0	0	0
117	1	1	12.572340162557932	0.10623214221270327	95.3740825784806	0	0	0
118	1	1	13.358111422717803	0.4703248868627	95.8740825784806	0	0	0
119	1	1	14.143882682877674	0.2193585572954786	96.4393961446811	0	0	0
120	1	1	14.929653943037545	0.5834513019454753	96.9393961446811	0	0	0
121	1	1	15.715425203197416	0.3324849723782539	97.5047097108816	0	0	0
122	1	1	16.501196463357285	0.6965777170282507	98.0047097108816	0	0	0
123	1	1	17.286967723517158	0.44561138746102924	98.5700232770821	0	0	0
124	1	1	18.072738983677027	0.809704132111026	99.0700232770821	0	0	0
125	1	1	18.858510243836896	0.5587378025438046	99.6353368432826	0	0	0
126	1	1	19.644281503996766	0.9228305471938013	100.1353368432826	0	0	0
127	1	1	20.430052764156635	0.6718642176265799	100.7006504094831	0	0	0
128	1	1	21.215824024316504	1.0359569622765767	101.2006504094831	0	0	0
129	1	1	22.001595284476373	0.7849906327093553	101.7659639756836	0	0	0
130	1	1	22.787366544636242	1.149083377359352	102.2659639756836	0	0	0
131	1	1	23.57313780479611	0.8981170477921306	102.8312775418841	0	0	0
132	1	1	24.35890906495598	1.2622097924421274	103.3312775418841	0	0	0
133	1	1	25.14468032511585	1.0112434628749059	103.8965911080846	0	0	0
134	1	1	25.93045158527572	1.3753362075249025	104.3965911080846	0	0	0
135	1	1	26.71622284543559	1.124369877957681	104.96190467428511	0	0	0
136	1	1	27.501994105595458	1.4884626226076776	105.46190467428511	0	0	0
137	1	1	28.287765365755327	1.237496293040456	106.02721824048561	0	0	0
138	1	1	29.073536625915196	1.6015890376904527	106.52721824048561	0	0	0
139	1	1	29.859307886075065	1.3506227081232312	107.09253180668611	0	0	0
140	1	1	30.645079146234934	1.7147154527732278	107.59253180668611	0	0	0
141	1	1	31.430850406394804	1.4637491232060063	108.15784537288661	0	0	0
142	1	1	32.21662166655467	1.8278418678560029	108.65784537288661	0	0	0
143	1	1	33.00239292671454	1.5768755382887814	109.22315893908711	0	0	0
144	1	1	33.78816418687441	1.940968282938778	109.72315893908711	0	0	0
145	1	1	34.57393544703428	1.6900019533715565	110.28847250528761	0	0	0
146	1	1	35.35970670719415	2.054094698021553	110.78847250528761	0	0	0
147	1	1	36.14547796735402	1.8031283684543316	111.35378607148812	0	0	0
148	1	1	36.93124922751389	2.167221113104328	111.85378607148812	0	0	0
149	1	1	37.71702048767376	1.9162547835371067	112.41909963768862	0	0	0
150	1	1	38.502791747833626	2.2803475281871033	112.91909963768862	0	0	0
151	1	1	39.288563007993496	2.0293811986198818	113.48441320388912	0	0	0
152	1	1	40.074334268153365	2.3934739432698784	113.98441320388912	0	0	0
153	1	1	40.860105528313234	2.142507613702657	114.54972677008962	0	0	0
154	1	1	41.6458767884731	2.5066003583526535	115.04972677008962	0	0	0
155	1	1	42.43164804863297	2.255634028785432	115.61504033629012	0	0	0
156	1	1	43.21741930879284	2.6197267734354286	116.11504033629012	0	0	0
157	1	1	44.00319056895271	2.368760443868207	116.68035390249062	0	0	0
158	1	1	44.78896182911258	2.7328531885182037	117.18035390249062	0	0	0
159	1	1	45.57473308927245	2.481886858950982	117.74566746869112	0	0	0
160	1	1	46.36050434943232	2.845979603600979	118.24566746869112	0	0	0
161	1	1	47.14627560959219	2.5950132740337573	118.81098103489163	0	0	0
162	1	1	47.93204686975206	2.959106018683754	119.31098103489163	0	0	0
163	1	1	48.717818129911926	2.7081396891165324	119.87629460109213	0	0	0
164	1	1	49.503589390071795	3.072232433766529	120.37629460109213	0	0	0
165	1	1	50.289360650231664	2.8212661041993075	120.94160816729263	0	0	0
166	1	1	51.07513191039153	3.185358848849304	121.44160816729263	0	0	0
167	1	1	51.8609031705514	2.9343925192820826	122.00692173349313	0	0	0
168	1	1	52.64667443071127	3.298485263932079	122.50692173349313	0	0	0
169	1	1	53.43244569087114	3.0475189343648577	123.07223529969363	0	0	0
170	1	1	54.21821695103101	3.4116116790148543	123.57223529969363	0	0	0
171	1	1	55.00398821119088	3.1606453494476328	124.13754886589413	0	0	0
172	1	1	55.78975947135075	3.5247380940976294	124.63754886589413	0	0	0
173	1	1	56.57553073151062	3.273771764530408	125.20286243209463	0	0	0
174	1	1	57.36130199167049	3.6378645091804045	125.70286243209463	0	0	0
175	1	1	58.147073251830356	3.386898179613183	126.26817599829513	0	0	0
176	1	1	58.932844511990226	3.7509909242631796	126.76817599829513	0	0	0
177	1	1	59.718615772150095	3.500024594695958	127.33348956449564	0	0	0
178	1	1	60.504387032309964	3.8641173393459547	127.83348956449564	0	0	0
179	1	1	61.29015829246983	3.613151009778733	128.39880313069614	0	0	0
180	1	1	62.0759295526297	3.97724375442873	128.89880313069614	0	0	0
181	1	1	62.86170081278957	3.7262774248615083	129.46411669689664	0	0	0
182	1	1	63.64747207294944	4.090370169511505	129.96411669689664	0	0	0
183	1	1	64.43324333310932	3.839403839944284	130.52943026309714	0	0	0
184	1	1	65.2190145932692	4.203496584594281	131.02943026309714	0	0	0
185	1	1	66.00478585342907	3.9525302550270593	131.59474382929764	0	0	0
186	1	1	66.79055711358895	4.316622999677056	132.09474382929764	0	0	0
187	1	1	67.57632837374882	4.065656670109835	132.66005739549814	0	0	0
188	1	1	68.3620996339087	4.429749414759832	133.16005739549814	0	0	0
189	1	1	69.14787089406857	4.17878308519261	133.72537096169864	0	0	0
190	1	1	69.93364215422845	4.5428758298426075	134.22537096169864	0	0	0
191	1	1	70.71941341438833	4.291909500275386	134.79068452789915	0	0	0
192	1	1	71.5051846745482	4.656002244925383	135.29068452789915	0	0	0
193	1	1	72.29095593470808	4.4050359153581615	135.85599809409965	0	0	0
194	1	1	73.07672719486796	4.769128660008159	136.35599809409965	0	0	0
195	1	1	73.86249845502783	4.518162330440937	136.92131166030015	0	0	0
196	1	1	74.64826971518771	4.882255075090934	137.42131166030015	0	0	0
197	1	1	75.43404097534759	4.631288745523713	137.98662522650065	0	0	0
198	1	1	76.21981223550746	4.99538149017371	138.48662522650065	0	0	0
199	1	1	77.00558349566734	4.744415160606488	139.05193879270115	0	0	0
200	1	1	77.79135475582721	5.108507905256485	139.55193879270115	0	0	0
201	1	1	78.57712601598709	4.857541575689264	140.11725235890165	0	0	0
202	1	1	-0.7857712601598722	-1.0653135662004884	86.98748130422659	0	0	0
203	1	1	-1.5715425203197475	-1.6803726404177017	86.9221677380261	0	0	0
204	1	1	-2.3573137804796227	-2.0444653850676904	87.4221677380261	0	0	0
205	1	1	-3.143085040639498	-2.6595244592849037	87.35685417182562	0	0	0
206	1	1	-3.9288563007993735	-3.0236172039348923	87.85685417182562	0	0	0
207	1	1	-4.714627560959249	-3.6386762781521056	87.79154060562513	0	0	0
208	1	1	-5.500398821119124	-4.002769022802094	88.29154060562513	0	0	0
209	1	1	-6.286170081279	-4.6178280970193075	88.22622703942464	0	0	0
210	1	1	-7.071941341438875	-4.981920841669297	88.72622703942464	0	0	0
211	1	1	-7.857712601598751	-5.59697991588651	88.66091347322416	0	0	0
212	1	1	-8.643483861758625	-5.961072660536499	89.16091347322416	0	0	0
213	1	1	-9.4292551219185	-6.576131734753712	89.09559990702367	0	0	0
214	1	1	-10.215026382078374	-6.940224479403701	89.59559990702367	0	0	0
215	1	1	-11.000797642238249	-7.555283553620915	89.53028634082318	0	0	0
216	1	1	-11.786568902398123	-7.919376298270904	90.03028634082318	0	0	0
217	1	1	-12.572340162557998	-8.534435372488117	89.9649727746227	0	0	0
218	1	1	-13.358111422717872	-8.898528117138106	90.4649727746227	0	0	0
219	1	1	-14.143882682877747	-9.51358719135532	90.39965920842221	0	0	0
220	1	1	-14.929653943037621	-9.87767993600531	90.89965920842221	0	0	0
221	1	1	-15.715425203197496	-10.492739010222522	90.83434564222172	0	0	0
222	1	1	-16.50119646335737	-10.85683175487251	91.33434564222172	0	0	0
223	1	1	-17.286967723517247	-11.471890829089723	91.26903207602123	0	0	0
224	1	1	-18.072738983677123	-11.835983573739712	91.76903207602123	0	0	0
225	1	1	-18.858510243837	-12.451042647956925	91.70371850982075	0	0	0
226	1	1	-19.644281503996876	-12.815135392606914	92.20371850982075	0	0	0
227	1	1	-20.430052764156752	-13.430194466824126	92.13840494362026	0	0	0
228	1	1	-21.21582402431663	-13.794287211474115	92.63840494362026	0	0	0
229	1	1	-22.001595284476505	-14.409346285691328	92.57309137741977	0	0	0
230	1	1	-22.78736654463638	-14.773439030341317	93.07309137741977	0	0	0
231	1	1	-23.573137804796257	-15.38849810455853	93.00777781121928	0	0	0
232	1	1	-24.358909064956134	-15.752590849208518	93.50777781121928	0	0	0
233	1	1	-25.14468032511601	-16.36764992342573	93.4424642450188	0	0	0
234	1	1	-25.930451585275886	-16.731742668075718	93.9424642450188	0	0	0
235	1	1	-26.716222845435762	-17.346801742292932	93.87715067881831	0	0	0
236	1	1	-27.50199410559564	-17.71089448694292	94.37715067881831	0	0	0
237	1	1	-28.287765365755515	-18.325953561160134	94.31183711261782	0	0	0
238	1	1	-29.07353662591539	-18.69004630581012	94.81183711261782	0	0	0
239	1	1	-29.859307886075268	-19.305105380027335	94.74652354641734	0	0	0
240	1	1	-30.645079146235144	-19.669198124677322	95.24652354641734	0	0	0
241	1	1	-31.43085040639502	-20.284257198894537	95.18120998021685	0	0	0
242	1	1	-32.21662166655489	-20.648349943544524	95.68120998021685	0	0	0
243	1	1	-33.00239292671477	-21.263409017761738	95.61589641401636	0	0	0
244	1	1	-33.788164186874646	-21.627501762411725	96.11589641401636	0	0	0
245	1	1	-34.57393544703452	-22.24256083662894	96.05058284781587	0	0	0
246	1	1	-35.3597067071944	-22.606653581278927	96.55058284781587	0	0	0
247	1	1	-36.145477967354275	-23.22171265549614	96.48526928161539	0	0	0
248	1	1	-36.93124922751415	-23.58580540014613	96.98526928161539	0	0	0
249	1	1	-37.71702048767403	-24.200864474363343	96.9199557154149	0	0	0
250	1	1	-38.5027917478339	-24.56495721901333	97.4199557154149	0	0	0
251	1	1	-39.28856300799378	-25.180016293230544	97.35464214921441	0	0	0
252	1	1	-40.074334268153656	-25.54410903788053	97.85464214921441	0	0	0
253	1	1	-40.86010552831353	-26.159168112097746	97.78932858301393	0	0	0
254	1	1	-41.64587678847341	-26.523260856747733	98.28932858301393	0	0	0
255	1	1	-42.431648048633285	-27.138319930964947	98.22401501681344	0	0	0
256	1	1	-43.21741930879316	-27.502412675614934	98.72401501681344	0	0	0
257	1	1	-44.00319056895304	-28.11747174983215	98.65870145061295	0	0	0
258	1	1	-44.788961829112914	-28.481564494482136	99.15870145061295	0	0	0
259	1	1	-45.57473308927279	-29.09662356869935	99.09338788441246	0	0	0
260	1	1	-46.36050434943267	-29.460716313349337	99.59338788441246	0	0	0
261	1	1	-47.14627560959254	-30.07577538756655	99.52807431821198	0	0	0
262	1	1	-47.93204686975242	-30.43986813221654	100.02807431821198	0	0	0
263	1	1	-48.717818129912295	-31.054927206433753	99.96276075201149	0	0	0
264	1	1	-49.50358939007217	-31.41901995108374	100.46276075201149	0	0	0
265	1	1	-50.28936065023205	-32.034079025300954	100.397447185811	0	0	0
266	1	1	-51.075131910391924	-32.39817176995094	100.897447185811	0	0	0
267	1	1	-51.8609031705518	-33.013230844168156	100.83213361961052	0	0	0
268	1	1	-52.64667443071168	-33.37732358881814	101.33213361961052	0	0	0
269	1	1	-53.43244569087155	-33.99238266303536	101.26682005341003	0	0	0
270	1	1	-54.21821695103143	-34.356475407685345	101.76682005341003	0	0	0
271	1	1	-55.003988211191306	-34.97153448190256	101.70150648720954	0	0	0
272	1	1	-55.78975947135118	-35.335627226552546	102.20150648720954	0	0	0
273	1	1	-56.57553073151106	-35.95068630076976	102.13619292100906	0	0	0
274	1	1	-57.361301991670935	-36.31477904541975	102.63619292100906	0	0	0
275	1	1	-58.14707325183081	-36.92983811963696	102.57087935480857	0	0	0
276	1	1	-58.93284451199069	-37.29393086428695	103.07087935480857	0	0	0
277	1	1	-59.718615772150564	-37.90898993850416	103.00556578860808	0	0	0
278	1	1	-60.50438703231044	-38.27308268315415	103.50556578860808	0	0	0
279	1	1	-61.290158292470316	-38.888141757371365	103.4402522224076	0	0	0
280	1	1	-62.07592955263019	-39.25223450202135	103.9402522224076	0	0	0
281	1	1	-62.86170081279007	-39.867293576238566	103.8749386562071	0	0	0
282	1	1	-63.647472072949945	-40.231386320888554	104.3749386562071	0	0	0
283	1	1	-64.43324333310981	-40.84644539510577	104.30962509000662	0	0	0
284	1	1	-65.21901459326969	-41.210538139755755	104.80962509000662	0	0	0
285	1	1	-66.00478585342957	-41.82559721397297	104.74431152380613	0	0	0
286	1	1	-66.79055711358944	-42.18968995862296	105.24431152380613	0	0	0
287	1	1	-67.57632837374932	-42.80474903284017	105.17899795760565	0	0	0
288	1	1	-68.3620996339092	-43.16884177749016	105.67899795760565	0	0	0
289	1	1	-69.14787089406907	-43.78390085170737	105.61368439140516	0	0	0
290	1	1	-69.93364215422895	-44.14799359635736	106.11368439140516	0	0	0
291	1	1	-70.71941341438882	-44.763052670574574	106.04837082520467	0	0	0
292	1	1	-71.5051846745487	-45.12714541522456	106.54837082520467	0	0	0
293	1	1	-72.29095593470858	-45.742204489441775	106.48305725900418	0	0	0
294	1	1	-73.07672719486845	-46.10629723409176	106.98305725900418	0	0	0
295	1	1	-73.86249845502833	-46.72135630830898	106.9177436928037	0	0	0
296	1	1	-74.6482697151882	-47.085449052958964	107.4177436928037	0	0	0
297	1	1	-75.43404097534808	-47.70050812717618	107.35243012660321	0	0	0
298	1	1	-76.21981223550796	-48.064600871826165	107.85243012660321	0	0	0
299	1	1	-77.00558349566784	-48.67965994604338	107.78711656040272	0	0	0
300	1	1	-77.79135475582771	-49.04375269069337	108.28711656040272	0	0	0
301	1	1	-78.57712601598759	-49.65881176491058	108.22180299420224	0	0	0

Bonds

1	1	1	2
2	1	2	3
3	1	3	4
4	1	4	5
5	1	5	6
6	1	6	7
7	1	7	8
8	1	8	9
9	1	9	10
10	1	10	11
11	1	11	12
12	1	12	13
13	1	13	14
14	1	14	15
15	1	15	16
16	1	16	17
17	1	17	18
18	1	18	19
19	1	19	20
20	1	20	21
21	1	21	22
22	1	22	23
23	1	23	24
24	1	24	25
25	1	25	26
26	1	26	27
27	1	27	28
28	1	28	29
29	1	29	30
30	1	30	31
31	1	31	32
32	1	32	33
33	1	33	34
34	1	34	35
35	1	35	36
36	1	36	37
37	1	37	38
38	1	38	39
39	1	39	40
40	1	40	41
41	1	41	42
42	1	42	43
43	1	43	44
44	1	44	45
45	1	45	46
46	1	46	47
47	1	47	48
48	1	48	49
49	1	49	50
50	1	50	51
51	1	51	52
52	1	52	53
53	1	53	54
54	1	54	55
55	1	55	56
56	1	56	57
57	1	57	58
58	1	58	59
59	1	59	60
60	1	60	61
61	1	61	62
62	1	62	63
63	1	63	64
64	1	64	65
65	1	65	66
66	1	66	67
67	1	67	68
68	1	68	69
69	1	69	70
70	1	70	71
71	1	71	72
72	1	72	73
73	1	73	74
74	1	74	75
75	1	75	76
76	1	76	77
77	1	77	78
78	1	78	79
79	1	79	80
80	1	80	81
81	1	81	82
82	1	82	83
83	1	83	84
84	1	84	85
85	1	85	86
86	1	86	87
87	1	87	88
88	1	88	89
89	1	89	90
90	1	90	91
91	1	91	92
92	1	92	93
93	1	93	94
94	1	94	95
95	1	95	96
96	1	96	97
97	1	97	98
98	1	98	99
99	1	99	100
100	1	100	101
101	1	101	102
102	1	101	202
103	1	102	103
104	1	103	104
105	1	104	105
106	1	105	106
107	1	106	107
108	1	107	108
109	1	108	109
110	1	109	110
111	1	110	111
112	1	111	112
113	1	112	113
114	1	113	114
115	1	114	115
116	1	115	116
117	1	116	117
118	1	117	118
119	1	118	119
120	1	119	120
121	1	120	121
122	1	121	122
123	1	122	123
124	1	123	124
125	1	124	125
126	1	125	126
127	1	126	127
128	1	127	128
129	1	128	129
130	1	129	130
131	1	130	131
132	1	131	132
133	1	132	133
134	1	133	134
135	1	134	135
136	1	135	136
137	1	136	137
138	1	137	138
139	1	138	139
140	1	139	140
141	1	140	141
142	1	141	142
143	1	142	143
144	1	143	144
145	1	144	145
146	1	145	146
147	1	146	147
148	1	147	148
149	1	148	149
150	1	149	150
151	1	150	151
152	1	151	152
153	1	152	153
154	1	153	154
155	1	154	155
156	1	155	156
157	1	156	157
158	1	157	158
159	1	158	159
160	1	159	160
161	1	160	161
162	1	161	162
163	1	162	163
164	1	163	164
165	1	164	165
166	1	165	166
167	1	166	167
168	1	167	168
169	1	168	169
170	1	169	170
171	1	170	171
172	1	171	172
173	1	172	173
174	1	173	174
175	1	174	175
176	1	175	176
177	1	176	177
178	1	177	178
179	1	178	179
180	1	179	180
181	1	180	181
182	1	181	182
183	1	182	183
184	1	183	184
185	1	184	185
186	1	185	186
187	1	186	187
188	1	187	188
189	1	188	189
190	1	189	190
191	1	190	191
192	1	191	192
193	1	192	193
194	1	193	194
195	1	194	195
196	1	195	196
197	1	196	197
198	1	197	198
199	1	198	199
200	1	199	200
201	1	200	201
202	1	202	203
203	1	203	204
204	1	204	205
205	1	205	206
206	1	206	207
207	1	207	208
208	1	208	209
209	1	209	210
210	1	210	211
211	1	211	212
212	1	212	213
213	1	213	214
214	1	214	215
215	1	215	216
216	1	216	217
217	1	217	218
218	1	218	219
219	1	219	220
220	1	220	221
221	1	221	222
222	1	222	223
223	1	223	224
224	1	224	225
225	1	225	226
226	1	226	227
227	1	227	228
228	1	228	229
229	1	229	230
230	1	230	231
231	1	231	232
232	1	232	233
233	1	233	234
234	1	234	235
235	1	235	236
236	1	236	237
237	1	237	238
238	1	238	239
239	1	239	240
240	1	240	241
241	1	241	242
242	1	242	243
243	1	243	244
244	1	244	245
245	1	245	246
246	1	246	247
247	1	247	248
248	1	248	249
249	1	249	250
250	1	250	251
251	1	251	252
252	1	252	253
253	1	253	254
254	1	254	255
255	1	255	256
256	1	256	257
257	1	257	258
258	1	258	259
259	1	259	260
260	1	260	261
261	1	261	262
262	1	262	263
263	1	263	264
264	1	264	265
265	1	265	266
266	1	266	267
267	1	267	268
268	1	268	269
269	1	269	270
270	1	270	271
271	1	271	272
272	1	272	273
273	1	273	274
274	1	274	275
275	1	275	276
276	1	276	277
277	1	277	278
278	1	278	279
279	1	279	280
280	1	280	281
281	1	281	282
282	1	282	283
283	1	283	284
284	1	284	285
285	1	285	286
286	1	286	287
287	1	287	288
288	1	288	289
289	1	289	290
290	1	290	291
291	1	291	292
292	1	292	293
293	1	293	294
294	1	294	295
295	1	295	296
296	1	296	297
297	1	297	298
298	1	298	299
299	1	299	300
300	1	300	301

Angles

1	1	1	2	3
2	1	2	3	4
3	1	3	4	5
4	1	4	5	6
5	1	5	6	7
6	1	6	7	8
7	1	7	8	9
8	1	8	9	10
9	1	9	10	11
10	1	10	11	12
11	1	11	12	13
12	1	12	13	14
13	1	13	14	15
14	1	14	15	16
15	1	15	16	17
16	1	16	17	18
17	1	17	18	19
18	1	18	19	20
19	1	19	20	21
20	1	20	21	22
21	1	21	22	23
22	1	22	23	24
23	1	23	24	25
24	1	24	25	26
25	1	25	26	27
26	1	26	27	28
27	1	27	28	29
28	1	28	29	30
29	1	29	30	31
30	1	30	31	32
31	1	31	32	33
32	1	32	33	34
33	1	33	34	35
34	1	34	35	36
35	1	35	36	37
36	1	36	37	38
37	1	37	38	39
38	1	38	39	40
39	1	39	40	41
40	1	40	41	42
41	1	41	42	43
42	1	42	43	44
43	1	43	44	45
44	1	44	45	46
45	1	45	46	47
46	1	46	47	48
47	1	47	48	49
48	1	48	49	50
49	1	49	50	51
50	1	50	51	52
51	1	51	52	53
52	1	52	53	54
53	1	53	54	55
54	1	54	55	56
55	1	55	56	57
56	1	56	57	58
57	1	57	58	59
58	1	58	59	60
59	1	59	60	61
60	1	60	61	62
61	1	61	62	63
62	1	62	63	64
63	1	63	64	65
64	1	64	65	66
65	1	65	66	67
66	1	66	67	68
67	1	67	68	69
68	1	68	69	70
69	1	69	70	71
70	1	70	71	72
71	1	71	72	73
72	1	72	73	74
73	1	73	74	75
74	1	74	75	76
75	1	75	76	77
76	1	76	77	78
77	1	77	78	79
78	1	78	79	80
79	1	79	80	81
80	1	80	81	82
81	1	81	82	83
82	1	82	83	84
83	1	83	84	85
84	1	84	85	86
85	1	85	86	87
86	1	86	87	88
87	1	87	88	89
88	1	88	89	90
89	1	89	90	91
90	1	90	91	92
91	1	91	92	93
92	1	92	93	94
93	1	93	94	95
94	1	94	95	96
95	1	95	96	97
96	1	96	97	98
97	1	97	98	99
98	1	98	99	100
99	1	99	100	101
100	1	100	101	102
101	1	100	101	202
102	1	101	102	103
103	1	101	202	203
104	1	102	101	202
105	1	102	103	104
106	1	103	104	105
107	1	104	105	106
108	1	105	106	107
109	1	106	107	108
110	1	107	108	109
111	1	108	109	110
112	1	109	110	111
113	1	110	111	112
114	1	111	112	113
115	1	112	113	114
116	1	113	114	115
117	1	114	115	116
118	1	115	116	117
119	1	116	117	118
120	1	117	118	119
121	1	118	119	120
122	1	119	120	121
123	1	120	121	122
124	1	121	122	123
125	1	122	123	124
126	1	123	124	125
127	1	124	125	126
128	1	125	126	127
129	1	126	127	128
130	1	127	128	129
131	1	128	129	130
132	1	129	130	131
133	1	130	131	132
134	1	131	132	133
135	1	132	133	134
136	1	133	134	135
137	1	134	135	136
138	1	135	136	137
139	1	136	137	138
140	1	137	138	139
141	1	138	139	140
142	1	139	140	141
143	1	140	141	142
144	1	141	142	143
145	1	142	143	144
146	1	143	144	145
147	1	144	145	146
148	1	145	146	147
149	1	146	147	148
150	1	147	148	149
151	1	148	149	150
152	1	149	150	151
153	1	150	151	152
154	1	151	152	153
155	1	152	153	154
156	1	153	154	155
157	1	154	155	156
158	1	155	156	157
159	1	156	157	158
160	1	157	158	159
161	1	158	159	160
162	1	159	160	161
163	1	160	161	162
164	1	161	162	163
165	1	162	163	164
166	1	163	164	165
167	1	164	165	166
168	1	165	166	167
169	1	166	167	168
170	1	167	168	169
171	1	168	169	170
172	1	169	170	171
173	1	170	171	172
174	1	171	172	173
175	1	172	173	174
176	1	173	174	175
177	1	174	175	176
178	1	175	176	177
179	1	176	177	178
180	1	177	178	179
181	1	178	179	180
182	1	179	180	181
183	1	180	181	182
184	1	181	182	183
185	1	182	183	184
186	1	183	184	185
187	1	184	185	186
188	1	185	186	187
189	1	186	187	188
190	1	187	188	189
191	1	188	189	190
192	1	189	190	191
193	1	190	191	192
194	1	191	192	193
195	1	192	193	194
196	1	193	194	195
197	1	194	195	196
198	1	195	196	197
199	1	196	197	198
200	1	197	198	199
201	1	198	199	200
202	1	199	200	201
203	1	202	203	204
204	1	203	204	205
205	1	204	205	206
206	1	205	206	207
207	1	206	207	208
208	1	207	208	209
209	1	208	209	210
210	1	209	210	211
211	1	210	211	212
212	1	211	212	213
213	1	212	213	214
214	1	213	214	215
215	1	214	215	216
216	1	215	216	217
217	1	216	217	218
218	1	217	218	219
219	1	218	219	220
220	1	219	220	221
221	1	220	221	222
222	1	221	222	223
223	1	222	223	224
224	1	223	224	225
225	1	224	225	226
226	1	225	226	227
227	1	226	227	228
228	1	227	228	229
229	1	228	229	230
230	1	229	230	231
231	1	230	231	232
232	1	231	232	233
233	1	232	233	234
234	1	233	234	235
235	1	234	235	236
236	1	235	236	237
237	1	236	237	238
238	1	237	238	239
239	1	238	239	240
240	1	239	240	241
241	1	240	241	242
242	1	241	242	243
243	1	242	243	244
244	1	243	244	245
245	1	244	245	246
246	1	245	246	247
247	1	246	247	248
248	1	247	248	249
249	1	248	249	250
250	1	249	250	251
251	1	250	251	252
252	1	251	252	253
253	1	252	253	254
254	1	253	254	255
255	1	254	255	256
256	1	255	256	257
257	1	256	257	258
258	1	257	258	259
259	1	258	259	260
260	1	259	260	261
261	1	260	261	262
262	1	261	262	263
263	1	262	263	264
264	1	263	264	265
265	1	264	265	266
266	1	265	266	267
267	1	266	267	268
268	1	267	268	269
269	1	268	269	270
270	1	269	270	271
271	1	270	271	272
272	1	271	272	273
273	1	272	273	274
274	1	273	274	275
275	1	274	275	276
276	1	275	276	277
277	1	276	277	278
278	1	277	278	279
279	1	278	279	280
280	1	279	280	281
281	1	280	281	282
282	1	281	282	283
283	1	282	283	284
284	1	283	284	285
285	1	284	285	286
286	1	285	286	287
287	1	286	287	288
288	1	287	288	289
289	1	288	289	290
290	1	289	290	291
291	1	290	291	292
292	1	291	292	293
293	1	292	293	294
294	1	293	294	295
295	1	294	295	296
296	1	295	296	297
297	1	296	297	298
298	1	297	298	299
299	1	298	299	300
300	1	299	300	301
