bb266nuc1bl133bn3d30tot400V2

400 atoms
399 bonds
399 angles

1 atom types
1 bond types
1 angle types

-1000 1000 xlo xhi
-1000 1000 ylo yhi
-1000 1000 zlo zhi

Masses

1 1

Atoms

1	1	1	0.0	0.0	0.0	0	0	0
2	1	1	0.0	0.0	1.0	0	0	0
3	1	1	0.0	-0.49999999999999994	1.8660254037844388	0	0	0
4	1	1	0.0	0.0	2.7320508075688776	0	0	0
5	1	1	0.0	-0.49999999999999994	3.5980762113533165	0	0	0
6	1	1	0.0	0.0	4.464101615137755	0	0	0
7	1	1	0.0	-0.49999999999999994	5.330127018922194	0	0	0
8	1	1	0.0	0.0	6.196152422706632	0	0	0
9	1	1	0.0	-0.49999999999999994	7.06217782649107	0	0	0
10	1	1	0.0	0.0	7.928203230275509	0	0	0
11	1	1	0.0	-0.49999999999999994	8.794228634059948	0	0	0
12	1	1	0.0	0.0	9.660254037844387	0	0	0
13	1	1	0.0	-0.49999999999999994	10.526279441628827	0	0	0
14	1	1	0.0	0.0	11.392304845413266	0	0	0
15	1	1	0.0	-0.49999999999999994	12.258330249197705	0	0	0
16	1	1	0.0	0.0	13.124355652982144	0	0	0
17	1	1	0.0	-0.49999999999999994	13.990381056766584	0	0	0
18	1	1	0.0	0.0	14.856406460551023	0	0	0
19	1	1	0.0	-0.49999999999999994	15.722431864335462	0	0	0
20	1	1	0.0	0.0	16.5884572681199	0	0	0
21	1	1	0.0	-0.49999999999999994	17.454482671904337	0	0	0
22	1	1	0.0	0.0	18.320508075688775	0	0	0
23	1	1	0.0	-0.49999999999999994	19.186533479473212	0	0	0
24	1	1	0.0	0.0	20.05255888325765	0	0	0
25	1	1	0.0	-0.49999999999999994	20.918584287042087	0	0	0
26	1	1	0.0	0.0	21.784609690826525	0	0	0
27	1	1	0.0	-0.49999999999999994	22.650635094610962	0	0	0
28	1	1	0.0	0.0	23.5166604983954	0	0	0
29	1	1	0.0	-0.49999999999999994	24.382685902179837	0	0	0
30	1	1	0.0	0.0	25.248711305964274	0	0	0
31	1	1	0.0	-0.49999999999999994	26.114736709748712	0	0	0
32	1	1	0.0	0.0	26.98076211353315	0	0	0
33	1	1	0.0	-0.49999999999999994	27.846787517317587	0	0	0
34	1	1	0.0	0.0	28.712812921102024	0	0	0
35	1	1	0.0	-0.49999999999999994	29.578838324886462	0	0	0
36	1	1	0.0	0.0	30.4448637286709	0	0	0
37	1	1	0.0	-0.49999999999999994	31.310889132455337	0	0	0
38	1	1	0.0	0.0	32.17691453623978	0	0	0
39	1	1	0.0	-0.49999999999999994	33.04293994002422	0	0	0
40	1	1	0.0	0.0	33.90896534380866	0	0	0
41	1	1	0.0	-0.49999999999999994	34.7749907475931	0	0	0
42	1	1	0.0	0.0	35.64101615137754	0	0	0
43	1	1	0.0	-0.49999999999999994	36.50704155516198	0	0	0
44	1	1	0.0	0.0	37.373066958946424	0	0	0
45	1	1	0.0	-0.49999999999999994	38.239092362730865	0	0	0
46	1	1	0.0	0.0	39.105117766515306	0	0	0
47	1	1	0.0	-0.49999999999999994	39.97114317029975	0	0	0
48	1	1	0.0	0.0	40.83716857408419	0	0	0
49	1	1	0.0	-0.49999999999999994	41.70319397786863	0	0	0
50	1	1	0.0	0.0	42.56921938165307	0	0	0
51	1	1	0.0	-0.49999999999999994	43.43524478543751	0	0	0
52	1	1	0.0	0.0	44.30127018922195	0	0	0
53	1	1	0.0	-0.49999999999999994	45.16729559300639	0	0	0
54	1	1	0.0	0.0	46.033320996790835	0	0	0
55	1	1	0.0	-0.49999999999999994	46.899346400575276	0	0	0
56	1	1	0.0	0.0	47.76537180435972	0	0	0
57	1	1	0.0	-0.49999999999999994	48.63139720814416	0	0	0
58	1	1	0.0	0.0	49.4974226119286	0	0	0
59	1	1	0.0	-0.49999999999999994	50.36344801571304	0	0	0
60	1	1	0.0	0.0	51.22947341949748	0	0	0
61	1	1	0.0	-0.49999999999999994	52.09549882328192	0	0	0
62	1	1	0.0	0.0	52.96152422706636	0	0	0
63	1	1	0.0	-0.49999999999999994	53.827549630850804	0	0	0
64	1	1	0.0	0.0	54.693575034635245	0	0	0
65	1	1	0.0	-0.49999999999999994	55.559600438419686	0	0	0
66	1	1	0.0	0.0	56.42562584220413	0	0	0
67	1	1	0.0	-0.49999999999999994	57.29165124598857	0	0	0
68	1	1	0.0	0.0	58.15767664977301	0	0	0
69	1	1	0.0	-0.49999999999999994	59.02370205355745	0	0	0
70	1	1	0.0	0.0	59.88972745734189	0	0	0
71	1	1	0.0	-0.49999999999999994	60.75575286112633	0	0	0
72	1	1	0.0	0.0	61.62177826491077	0	0	0
73	1	1	0.0	-0.49999999999999994	62.487803668695214	0	0	0
74	1	1	0.0	0.0	63.353829072479655	0	0	0
75	1	1	0.0	-0.49999999999999994	64.21985447626409	0	0	0
76	1	1	0.0	0.0	65.08587988004852	0	0	0
77	1	1	0.0	-0.49999999999999994	65.95190528383296	0	0	0
78	1	1	0.0	0.0	66.81793068761739	0	0	0
79	1	1	0.0	-0.49999999999999994	67.68395609140183	0	0	0
80	1	1	0.0	0.0	68.54998149518626	0	0	0
81	1	1	0.0	-0.49999999999999994	69.41600689897069	0	0	0
82	1	1	0.0	0.0	70.28203230275513	0	0	0
83	1	1	0.0	-0.49999999999999994	71.14805770653956	0	0	0
84	1	1	0.0	0.0	72.014083110324	0	0	0
85	1	1	0.0	-0.49999999999999994	72.88010851410843	0	0	0
86	1	1	0.0	0.0	73.74613391789286	0	0	0
87	1	1	0.0	-0.49999999999999994	74.6121593216773	0	0	0
88	1	1	0.0	0.0	75.47818472546173	0	0	0
89	1	1	0.0	-0.49999999999999994	76.34421012924616	0	0	0
90	1	1	0.0	0.0	77.2102355330306	0	0	0
91	1	1	0.0	-0.49999999999999994	78.07626093681503	0	0	0
92	1	1	0.0	0.0	78.94228634059947	0	0	0
93	1	1	0.0	-0.49999999999999994	79.8083117443839	0	0	0
94	1	1	0.0	0.0	80.67433714816833	0	0	0
95	1	1	0.0	-0.49999999999999994	81.54036255195277	0	0	0
96	1	1	0.0	0.0	82.4063879557372	0	0	0
97	1	1	0.0	-0.49999999999999994	83.27241335952164	0	0	0
98	1	1	0.0	0.0	84.13843876330607	0	0	0
99	1	1	0.0	-0.49999999999999994	85.0044641670905	0	0	0
100	1	1	0.0	0.0	85.87048957087494	0	0	0
101	1	1	0.0	-0.49999999999999994	86.73651497465937	0	0	0
102	1	1	0.0	0.0	87.6025403784438	0	0	0
103	1	1	0.0	-0.49999999999999994	88.46856578222824	0	0	0
104	1	1	0.0	0.0	89.33459118601267	0	0	0
105	1	1	0.0	-0.49999999999999994	90.20061658979711	0	0	0
106	1	1	0.0	0.0	91.06664199358154	0	0	0
107	1	1	0.0	-0.49999999999999994	91.93266739736598	0	0	0
108	1	1	0.0	0.0	92.79869280115041	0	0	0
109	1	1	0.0	-0.49999999999999994	93.66471820493484	0	0	0
110	1	1	0.0	0.0	94.53074360871928	0	0	0
111	1	1	0.0	-0.49999999999999994	95.39676901250371	0	0	0
112	1	1	0.0	0.0	96.26279441628814	0	0	0
113	1	1	0.0	-0.49999999999999994	97.12881982007258	0	0	0
114	1	1	0.0	0.0	97.99484522385701	0	0	0
115	1	1	0.0	-0.49999999999999994	98.86087062764145	0	0	0
116	1	1	0.0	0.0	99.72689603142588	0	0	0
117	1	1	0.0	-0.49999999999999994	100.59292143521031	0	0	0
118	1	1	0.0	0.0	101.45894683899475	0	0	0
119	1	1	0.0	-0.49999999999999994	102.32497224277918	0	0	0
120	1	1	0.0	0.0	103.19099764656362	0	0	0
121	1	1	0.0	-0.49999999999999994	104.05702305034805	0	0	0
122	1	1	0.0	0.0	104.92304845413248	0	0	0
123	1	1	0.0	-0.49999999999999994	105.78907385791692	0	0	0
124	1	1	0.0	0.0	106.65509926170135	0	0	0
125	1	1	0.0	-0.49999999999999994	107.52112466548579	0	0	0
126	1	1	0.0	0.0	108.38715006927022	0	0	0
127	1	1	0.0	-0.49999999999999994	109.25317547305465	0	0	0
128	1	1	0.0	0.0	110.11920087683909	0	0	0
129	1	1	0.0	-0.49999999999999994	110.98522628062352	0	0	0
130	1	1	0.0	0.0	111.85125168440796	0	0	0
131	1	1	0.0	-0.49999999999999994	112.71727708819239	0	0	0
132	1	1	0.0	0.0	113.58330249197682	0	0	0
133	1	1	0.0	-0.49999999999999994	114.44932789576126	0	0	0
134	1	1	0.0	0.0	115.31535329954569	0	0	0
135	1	1	0.6454124526126042	0.7500820677743124	115.4596434849915	0	0	0
136	1	1	1.290824905225211	1.3275271006671248	115.9596434849915	0	0	0
137	1	1	1.9362373578378178	2.049262319005749	115.70956141721719	0	0	0
138	1	1	2.5816498104504246	2.6267073518985615	116.20956141721719	0	0	0
139	1	1	3.2270622630630315	3.348442570237186	115.95947934944287	0	0	0
140	1	1	3.8724747156756383	3.9258876031299983	116.45947934944287	0	0	0
141	1	1	4.5178871682882455	4.647622821468622	116.20939728166856	0	0	0
142	1	1	5.163299620900853	5.225067854361434	116.70939728166856	0	0	0
143	1	1	5.80871207351346	5.9468030727000585	116.45931521389424	0	0	0
144	1	1	6.454124526126067	6.5242481055928705	116.95931521389424	0	0	0
145	1	1	7.099536978738675	7.245983323931495	116.70923314611993	0	0	0
146	1	1	7.744949431351282	7.823428356824307	117.20923314611993	0	0	0
147	1	1	8.39036188396389	8.545163575162931	116.95915107834561	0	0	0
148	1	1	9.035774336576496	9.122608608055744	117.45915107834561	0	0	0
149	1	1	9.681186789189104	9.844343826394368	117.2090690105713	0	0	0
150	1	1	10.326599241801711	10.421788859287181	117.7090690105713	0	0	0
151	1	1	10.972011694414318	11.143524077625806	117.45898694279698	0	0	0
152	1	1	11.617424147026925	11.720969110518618	117.95898694279698	0	0	0
153	1	1	12.262836599639533	12.442704328857243	117.70890487502267	0	0	0
154	1	1	12.90824905225214	13.020149361750056	118.20890487502267	0	0	0
155	1	1	13.553661504864747	13.74188458008868	117.95882280724835	0	0	0
156	1	1	14.199073957477355	14.319329612981493	118.45882280724835	0	0	0
157	1	1	14.844486410089962	15.041064831320117	118.20874073947404	0	0	0
158	1	1	15.489898862702569	15.61850986421293	118.70874073947404	0	0	0
159	1	1	16.135311315315175	16.340245082551554	118.45865867169972	0	0	0
160	1	1	16.780723767927782	16.917690115444366	118.95865867169972	0	0	0
161	1	1	17.42613622054039	17.639425333782988	118.70857660392541	0	0	0
162	1	1	18.071548673152996	18.2168703666758	119.20857660392541	0	0	0
163	1	1	18.716961125765604	18.93860558501442	118.9584945361511	0	0	0
164	1	1	19.36237357837821	19.516050617907233	119.4584945361511	0	0	0
165	1	1	20.007786030990818	20.237785836245855	119.20841246837678	0	0	0
166	1	1	20.653198483603425	20.815230869138666	119.70841246837678	0	0	0
167	1	1	21.298610936216033	21.53696608747729	119.45833040060246	0	0	0
168	1	1	21.94402338882864	22.1144111203701	119.95833040060246	0	0	0
169	1	1	22.589435841441247	22.836146338708723	119.70824833282815	0	0	0
170	1	1	23.234848294053855	23.413591371601534	120.20824833282815	0	0	0
171	1	1	23.880260746666462	24.135326589940156	119.95816626505383	0	0	0
172	1	1	24.52567319927907	24.712771622832967	120.45816626505383	0	0	0
173	1	1	25.171085651891676	25.43450684117159	120.20808419727952	0	0	0
174	1	1	25.816498104504284	26.0119518740644	120.70808419727952	0	0	0
175	1	1	26.46191055711689	26.733687092403024	120.4580021295052	0	0	0
176	1	1	27.107323009729498	27.311132125295835	120.9580021295052	0	0	0
177	1	1	27.752735462342105	28.032867343634457	120.70792006173089	0	0	0
178	1	1	28.398147914954713	28.61031237652727	121.20792006173089	0	0	0
179	1	1	29.04356036756732	29.33204759486589	120.95783799395657	0	0	0
180	1	1	29.688972820179927	29.909492627758702	121.45783799395657	0	0	0
181	1	1	30.334385272792534	30.631227846097325	121.20775592618226	0	0	0
182	1	1	30.97979772540514	31.208672878990136	121.70775592618226	0	0	0
183	1	1	31.62521017801775	31.93040809732876	121.45767385840794	0	0	0
184	1	1	32.270622630630356	32.50785313022157	121.95767385840794	0	0	0
185	1	1	32.91603508324296	33.22958834856019	121.70759179063363	0	0	0
186	1	1	33.561447535855564	33.807033381453	122.20759179063363	0	0	0
187	1	1	34.20685998846817	34.528768599791626	121.95750972285931	0	0	0
188	1	1	34.85227244108077	35.10621363268444	122.45750972285931	0	0	0
189	1	1	35.497684893693375	35.82794885102306	122.207427655085	0	0	0
190	1	1	36.14309734630598	36.40539388391587	122.707427655085	0	0	0
191	1	1	36.78850979891858	37.12712910225449	122.45734558731068	0	0	0
192	1	1	37.433922251531186	37.704574135147304	122.95734558731068	0	0	0
193	1	1	38.07933470414379	38.42630935348593	122.70726351953637	0	0	0
194	1	1	38.72474715675639	39.00375438637874	123.20726351953637	0	0	0
195	1	1	39.370159609369	39.72548960471736	122.95718145176205	0	0	0
196	1	1	40.0155720619816	40.30293463761017	123.45718145176205	0	0	0
197	1	1	40.660984514594205	41.024669855948794	123.20709938398774	0	0	0
198	1	1	41.30639696720681	41.602114888841605	123.70709938398774	0	0	0
199	1	1	41.95180941981941	42.32385010718023	123.45701731621342	0	0	0
200	1	1	42.597221872432016	42.90129514007304	123.95701731621342	0	0	0
201	1	1	43.24263432504462	43.62303035841166	123.70693524843911	0	0	0
202	1	1	43.88804677765722	44.20047539130447	124.20693524843911	0	0	0
203	1	1	44.53345923026983	44.922210609643095	123.9568531806648	0	0	0
204	1	1	45.17887168288243	45.499655642535906	124.4568531806648	0	0	0
205	1	1	45.824284135495034	46.22139086087453	124.20677111289048	0	0	0
206	1	1	46.46969658810764	46.79883589376734	124.70677111289048	0	0	0
207	1	1	47.11510904072024	47.52057111210596	124.45668904511616	0	0	0
208	1	1	47.760521493332845	48.09801614499877	124.95668904511616	0	0	0
209	1	1	48.40593394594545	48.819751363337396	124.70660697734185	0	0	0
210	1	1	49.05134639855805	49.39719639623021	125.20660697734185	0	0	0
211	1	1	49.69675885117066	50.11893161456883	124.95652490956753	0	0	0
212	1	1	50.34217130378326	50.69637664746164	125.45652490956753	0	0	0
213	1	1	50.987583756395864	51.41811186580026	125.20644284179322	0	0	0
214	1	1	51.63299620900847	51.995556898693074	125.70644284179322	0	0	0
215	1	1	52.27840866162107	52.7172921170317	125.4563607740189	0	0	0
216	1	1	52.923821114233675	53.29473714992451	125.9563607740189	0	0	0
217	1	1	53.56923356684628	54.01647236826313	125.70627870624459	0	0	0
218	1	1	54.21464601945888	54.59391740115594	126.20627870624459	0	0	0
219	1	1	54.860058472071486	55.315652619494564	125.95619663847027	0	0	0
220	1	1	55.50547092468409	55.893097652387375	126.45619663847027	0	0	0
221	1	1	56.150883377296694	56.614832870726	126.20611457069596	0	0	0
222	1	1	56.7962958299093	57.19227790361881	126.70611457069596	0	0	0
223	1	1	57.4417082825219	57.91401312195743	126.45603250292164	0	0	0
224	1	1	58.087120735134505	58.49145815485024	126.95603250292164	0	0	0
225	1	1	58.73253318774711	59.213193373188865	126.70595043514733	0	0	0
226	1	1	59.37794564035971	59.790638406081676	127.20595043514733	0	0	0
227	1	1	60.023358092972316	60.5123736244203	126.95586836737301	0	0	0
228	1	1	60.66877054558492	61.08981865731311	127.45586836737301	0	0	0
229	1	1	61.31418299819752	61.81155387565173	127.2057862995987	0	0	0
230	1	1	61.95959545081013	62.388998908544544	127.7057862995987	0	0	0
231	1	1	62.60500790342273	63.110734126883166	127.45570423182438	0	0	0
232	1	1	63.250420356035335	63.68817915977598	127.95570423182438	0	0	0
233	1	1	63.89583280864794	64.4099143781146	127.70562216405007	0	0	0
234	1	1	64.54124526126054	64.98735941100742	128.20562216405006	0	0	0
235	1	1	65.18665771387315	65.70909462934604	127.95554009627574	0	0	0
236	1	1	65.83207016648575	66.28653966223885	128.45554009627574	0	0	0
237	1	1	66.47748261909835	67.00827488057747	128.20545802850143	0	0	0
238	1	1	67.12289507171096	67.58571991347029	128.70545802850143	0	0	0
239	1	1	67.76830752432356	68.30745513180891	128.4553759607271	0	0	0
240	1	1	68.41371997693616	68.88490016470172	128.9553759607271	0	0	0
241	1	1	69.05913242954877	69.60663538304034	128.7052938929528	0	0	0
242	1	1	69.70454488216137	70.18408041593315	129.2052938929528	0	0	0
243	1	1	70.34995733477398	70.90581563427178	128.95521182517848	0	0	0
244	1	1	70.99536978738658	71.48326066716459	129.45521182517848	0	0	0
245	1	1	71.64078223999918	72.20499588550321	129.20512975740417	0	0	0
246	1	1	72.28619469261179	72.78244091839602	129.70512975740417	0	0	0
247	1	1	72.93160714522439	73.50417613673464	129.45504768962985	0	0	0
248	1	1	73.577019597837	74.08162116962745	129.95504768962985	0	0	0
249	1	1	74.2224320504496	74.80335638796608	129.70496562185554	0	0	0
250	1	1	74.8678445030622	75.38080142085889	130.20496562185554	0	0	0
251	1	1	75.5132569556748	76.10253663919751	129.95488355408122	0	0	0
252	1	1	76.15866940828741	76.67998167209032	130.45488355408122	0	0	0
253	1	1	76.80408186090001	77.40171689042894	130.2048014863069	0	0	0
254	1	1	77.44949431351262	77.97916192332175	130.7048014863069	0	0	0
255	1	1	78.09490676612522	78.70089714166038	130.4547194185326	0	0	0
256	1	1	78.74031921873782	79.27834217455319	130.9547194185326	0	0	0
257	1	1	79.38573167135043	80.00007739289181	130.70463735075828	0	0	0
258	1	1	80.03114412396303	80.57752242578462	131.20463735075828	0	0	0
259	1	1	80.67655657657563	81.29925764412324	130.95455528298396	0	0	0
260	1	1	81.32196902918824	81.87670267701606	131.45455528298396	0	0	0
261	1	1	81.96738148180084	82.59843789535468	131.20447321520965	0	0	0
262	1	1	82.61279393441345	83.17588292824749	131.70447321520965	0	0	0
263	1	1	83.25820638702605	83.89761814658611	131.45439114743533	0	0	0
264	1	1	83.90361883963865	84.47506317947892	131.95439114743533	0	0	0
265	1	1	84.54903129225126	85.19679839781755	131.70430907966102	0	0	0
266	1	1	85.19444374486386	85.77424343071036	132.20430907966102	0	0	0
267	1	1	85.83985619747646	86.49597864904898	131.9542270118867	0	0	0
268	1	1	-0.6454124526126038	-0.2500820677743122	116.03708851788431	0	0	0
269	1	1	-1.2908249052252103	-0.827527100667122	116.53708851788431	0	0	0
270	1	1	-1.936237357837817	-0.683236915221306	117.28717058565863	0	0	0
271	1	1	-2.5816498104504233	-1.2606819481141158	117.78717058565863	0	0	0
272	1	1	-3.2270622630630297	-1.1163917626683	118.53725265343294	0	0	0
273	1	1	-3.872474715675636	-1.6938367955611098	119.03725265343294	0	0	0
274	1	1	-4.517887168288243	-1.549546610115294	119.78733472120726	0	0	0
275	1	1	-5.163299620900849	-2.126991643008104	120.28733472120726	0	0	0
276	1	1	-5.808712073513456	-1.982701457562288	121.03741678898157	0	0	0
277	1	1	-6.454124526126062	-2.560146490455098	121.53741678898157	0	0	0
278	1	1	-7.099536978738668	-2.415856305009282	122.28749885675589	0	0	0
279	1	1	-7.744949431351275	-2.993301337902092	122.78749885675589	0	0	0
280	1	1	-8.390361883963882	-2.849011152456276	123.5375809245302	0	0	0
281	1	1	-9.03577433657649	-3.426456185349086	124.0375809245302	0	0	0
282	1	1	-9.681186789189097	-3.28216599990327	124.78766299230452	0	0	0
283	1	1	-10.326599241801704	-3.8596110327960798	125.28766299230452	0	0	0
284	1	1	-10.972011694414311	-3.715320847350264	126.03774506007883	0	0	0
285	1	1	-11.617424147026918	-4.292765880243074	126.53774506007883	0	0	0
286	1	1	-12.262836599639526	-4.148475694797258	127.28782712785315	0	0	0
287	1	1	-12.908249052252133	-4.7259207276900685	127.78782712785315	0	0	0
288	1	1	-13.55366150486474	-4.581630542244253	128.53790919562746	0	0	0
289	1	1	-14.199073957477347	-5.159075575137063	129.03790919562746	0	0	0
290	1	1	-14.844486410089955	-5.014785389691247	129.78799126340178	0	0	0
291	1	1	-15.489898862702562	-5.592230422584057	130.28799126340178	0	0	0
292	1	1	-16.135311315315167	-5.4479402371382415	131.0380733311761	0	0	0
293	1	1	-16.780723767927775	-6.025385270031052	131.5380733311761	0	0	0
294	1	1	-17.426136220540382	-5.881095084585236	132.2881553989504	0	0	0
295	1	1	-18.07154867315299	-6.458540117478046	132.7881553989504	0	0	0
296	1	1	-18.716961125765597	-6.31424993203223	133.53823746672472	0	0	0
297	1	1	-19.362373578378204	-6.8916949649250405	134.03823746672472	0	0	0
298	1	1	-20.00778603099081	-6.747404779479225	134.78831953449904	0	0	0
299	1	1	-20.65319848360342	-7.324849812372035	135.28831953449904	0	0	0
300	1	1	-21.298610936216026	-7.180559626926219	136.03840160227335	0	0	0
301	1	1	-21.944023388828633	-7.758004659819029	136.53840160227335	0	0	0
302	1	1	-22.58943584144124	-7.6137144743732135	137.28848367004767	0	0	0
303	1	1	-23.234848294053847	-8.191159507266024	137.78848367004767	0	0	0
304	1	1	-23.880260746666455	-8.046869321820207	138.53856573782198	0	0	0
305	1	1	-24.525673199279062	-8.624314354713016	139.03856573782198	0	0	0
306	1	1	-25.17108565189167	-8.4800241692672	139.7886478055963	0	0	0
307	1	1	-25.816498104504277	-9.057469202160009	140.2886478055963	0	0	0
308	1	1	-26.461910557116884	-8.913179016714192	141.0387298733706	0	0	0
309	1	1	-27.10732300972949	-9.490624049607002	141.5387298733706	0	0	0
310	1	1	-27.7527354623421	-9.346333864161185	142.28881194114493	0	0	0
311	1	1	-28.398147914954706	-9.923778897053994	142.78881194114493	0	0	0
312	1	1	-29.043560367567313	-9.779488711608177	143.53889400891924	0	0	0
313	1	1	-29.68897282017992	-10.356933744500987	144.03889400891924	0	0	0
314	1	1	-30.334385272792527	-10.21264355905517	144.78897607669356	0	0	0
315	1	1	-30.979797725405135	-10.79008859194798	145.28897607669356	0	0	0
316	1	1	-31.625210178017742	-10.645798406502163	146.03905814446787	0	0	0
317	1	1	-32.27062263063035	-11.223243439394972	146.53905814446787	0	0	0
318	1	1	-32.91603508324295	-11.078953253949155	147.2891402122422	0	0	0
319	1	1	-33.56144753585556	-11.656398286841965	147.7891402122422	0	0	0
320	1	1	-34.20685998846816	-11.512108101396148	148.5392222800165	0	0	0
321	1	1	-34.852272441080764	-12.089553134288957	149.0392222800165	0	0	0
322	1	1	-35.49768489369337	-11.94526294884314	149.78930434779082	0	0	0
323	1	1	-36.14309734630597	-12.52270798173595	150.28930434779082	0	0	0
324	1	1	-36.788509798918575	-12.378417796290133	151.03938641556513	0	0	0
325	1	1	-37.43392225153118	-12.955862829182943	151.53938641556513	0	0	0
326	1	1	-38.07933470414378	-12.811572643737126	152.28946848333945	0	0	0
327	1	1	-38.724747156756386	-13.389017676629935	152.78946848333945	0	0	0
328	1	1	-39.37015960936899	-13.244727491184118	153.53955055111376	0	0	0
329	1	1	-40.015572061981594	-13.822172524076928	154.03955055111376	0	0	0
330	1	1	-40.6609845145942	-13.677882338631111	154.78963261888808	0	0	0
331	1	1	-41.3063969672068	-14.25532737152392	155.28963261888808	0	0	0
332	1	1	-41.951809419819405	-14.111037186078104	156.0397146866624	0	0	0
333	1	1	-42.59722187243201	-14.688482218970913	156.5397146866624	0	0	0
334	1	1	-43.24263432504461	-14.544192033525096	157.2897967544367	0	0	0
335	1	1	-43.888046777657216	-15.121637066417906	157.7897967544367	0	0	0
336	1	1	-44.53345923026982	-14.977346880972089	158.53987882221102	0	0	0
337	1	1	-45.17887168288242	-15.554791913864898	159.03987882221102	0	0	0
338	1	1	-45.82428413549503	-15.410501728419082	159.78996088998534	0	0	0
339	1	1	-46.46969658810763	-15.98794676131189	160.28996088998534	0	0	0
340	1	1	-47.115109040720235	-15.843656575866074	161.04004295775965	0	0	0
341	1	1	-47.76052149333284	-16.421101608758885	161.54004295775965	0	0	0
342	1	1	-48.40593394594544	-16.27681142331307	162.29012502553397	0	0	0
343	1	1	-49.051346398558046	-16.85425645620588	162.79012502553397	0	0	0
344	1	1	-49.69675885117065	-16.709966270760066	163.54020709330828	0	0	0
345	1	1	-50.34217130378325	-17.287411303652878	164.04020709330828	0	0	0
346	1	1	-50.98758375639586	-17.143121118207063	164.7902891610826	0	0	0
347	1	1	-51.63299620900846	-17.720566151099874	165.2902891610826	0	0	0
348	1	1	-52.278408661621064	-17.57627596565406	166.0403712288569	0	0	0
349	1	1	-52.92382111423367	-18.15372099854687	166.5403712288569	0	0	0
350	1	1	-53.56923356684627	-18.009430813101055	167.29045329663123	0	0	0
351	1	1	-54.214646019458876	-18.586875845993866	167.79045329663123	0	0	0
352	1	1	-54.86005847207148	-18.44258566054805	168.54053536440554	0	0	0
353	1	1	-55.50547092468408	-19.020030693440862	169.04053536440554	0	0	0
354	1	1	-56.15088337729669	-18.875740507995047	169.79061743217986	0	0	0
355	1	1	-56.79629582990929	-19.45318554088786	170.29061743217986	0	0	0
356	1	1	-57.441708282521894	-19.308895355442043	171.04069949995417	0	0	0
357	1	1	-58.0871207351345	-19.886340388334855	171.54069949995417	0	0	0
358	1	1	-58.7325331877471	-19.74205020288904	172.2907815677285	0	0	0
359	1	1	-59.377945640359705	-20.31949523578185	172.7907815677285	0	0	0
360	1	1	-60.02335809297231	-20.175205050336036	173.5408636355028	0	0	0
361	1	1	-60.66877054558491	-20.752650083228847	174.0408636355028	0	0	0
362	1	1	-61.314182998197516	-20.608359897783032	174.79094570327712	0	0	0
363	1	1	-61.95959545081012	-21.185804930675843	175.29094570327712	0	0	0
364	1	1	-62.605007903422724	-21.041514745230028	176.04102777105143	0	0	0
365	1	1	-63.25042035603533	-21.61895977812284	176.54102777105143	0	0	0
366	1	1	-63.89583280864793	-21.474669592677024	177.29110983882575	0	0	0
367	1	1	-64.54124526126054	-22.052114625569835	177.79110983882575	0	0	0
368	1	1	-65.18665771387315	-21.90782444012402	178.54119190660006	0	0	0
369	1	1	-65.83207016648575	-22.48526947301683	179.04119190660006	0	0	0
370	1	1	-66.47748261909835	-22.340979287571017	179.79127397437438	0	0	0
371	1	1	-67.12289507171096	-22.918424320463828	180.29127397437438	0	0	0
372	1	1	-67.76830752432356	-22.774134135018013	181.0413560421487	0	0	0
373	1	1	-68.41371997693616	-23.351579167910824	181.5413560421487	0	0	0
374	1	1	-69.05913242954877	-23.20728898246501	182.291438109923	0	0	0
375	1	1	-69.70454488216137	-23.78473401535782	182.791438109923	0	0	0
376	1	1	-70.34995733477398	-23.640443829912005	183.54152017769732	0	0	0
377	1	1	-70.99536978738658	-24.217888862804816	184.04152017769732	0	0	0
378	1	1	-71.64078223999918	-24.073598677359	184.79160224547164	0	0	0
379	1	1	-72.28619469261179	-24.651043710251813	185.29160224547164	0	0	0
380	1	1	-72.93160714522439	-24.506753524805998	186.04168431324595	0	0	0
381	1	1	-73.577019597837	-25.08419855769881	186.54168431324595	0	0	0
382	1	1	-74.2224320504496	-24.939908372252994	187.29176638102027	0	0	0
383	1	1	-74.8678445030622	-25.517353405145805	187.79176638102027	0	0	0
384	1	1	-75.5132569556748	-25.37306321969999	188.54184844879458	0	0	0
385	1	1	-76.15866940828741	-25.9505082525928	189.04184844879458	0	0	0
386	1	1	-76.80408186090001	-25.806218067146986	189.7919305165689	0	0	0
387	1	1	-77.44949431351262	-26.383663100039797	190.2919305165689	0	0	0
388	1	1	-78.09490676612522	-26.239372914593982	191.0420125843432	0	0	0
389	1	1	-78.74031921873782	-26.816817947486793	191.5420125843432	0	0	0
390	1	1	-79.38573167135043	-26.67252776204098	192.29209465211753	0	0	0
391	1	1	-80.03114412396303	-27.24997279493379	192.79209465211753	0	0	0
392	1	1	-80.67655657657563	-27.105682609487975	193.54217671989184	0	0	0
393	1	1	-81.32196902918824	-27.683127642380786	194.04217671989184	0	0	0
394	1	1	-81.96738148180084	-27.53883745693497	194.79225878766616	0	0	0
395	1	1	-82.61279393441345	-28.116282489827782	195.29225878766616	0	0	0
396	1	1	-83.25820638702605	-27.971992304381967	196.04234085544047	0	0	0
397	1	1	-83.90361883963865	-28.549437337274778	196.54234085544047	0	0	0
398	1	1	-84.54903129225126	-28.405147151828963	197.2924229232148	0	0	0
399	1	1	-85.19444374486386	-28.982592184721774	197.7924229232148	0	0	0
400	1	1	-85.83985619747646	-28.83830199927596	198.5425049909891	0	0	0

Bonds

1	1	1	2
2	1	2	3
3	1	3	4
4	1	4	5
5	1	5	6
6	1	6	7
7	1	7	8
8	1	8	9
9	1	9	10
10	1	10	11
11	1	11	12
12	1	12	13
13	1	13	14
14	1	14	15
15	1	15	16
16	1	16	17
17	1	17	18
18	1	18	19
19	1	19	20
20	1	20	21
21	1	21	22
22	1	22	23
23	1	23	24
24	1	24	25
25	1	25	26
26	1	26	27
27	1	27	28
28	1	28	29
29	1	29	30
30	1	30	31
31	1	31	32
32	1	32	33
33	1	33	34
34	1	34	35
35	1	35	36
36	1	36	37
37	1	37	38
38	1	38	39
39	1	39	40
40	1	40	41
41	1	41	42
42	1	42	43
43	1	43	44
44	1	44	45
45	1	45	46
46	1	46	47
47	1	47	48
48	1	48	49
49	1	49	50
50	1	50	51
51	1	51	52
52	1	52	53
53	1	53	54
54	1	54	55
55	1	55	56
56	1	56	57
57	1	57	58
58	1	58	59
59	1	59	60
60	1	60	61
61	1	61	62
62	1	62	63
63	1	63	64
64	1	64	65
65	1	65	66
66	1	66	67
67	1	67	68
68	1	68	69
69	1	69	70
70	1	70	71
71	1	71	72
72	1	72	73
73	1	73	74
74	1	74	75
75	1	75	76
76	1	76	77
77	1	77	78
78	1	78	79
79	1	79	80
80	1	80	81
81	1	81	82
82	1	82	83
83	1	83	84
84	1	84	85
85	1	85	86
86	1	86	87
87	1	87	88
88	1	88	89
89	1	89	90
90	1	90	91
91	1	91	92
92	1	92	93
93	1	93	94
94	1	94	95
95	1	95	96
96	1	96	97
97	1	97	98
98	1	98	99
99	1	99	100
100	1	100	101
101	1	101	102
102	1	102	103
103	1	103	104
104	1	104	105
105	1	105	106
106	1	106	107
107	1	107	108
108	1	108	109
109	1	109	110
110	1	110	111
111	1	111	112
112	1	112	113
113	1	113	114
114	1	114	115
115	1	115	116
116	1	116	117
117	1	117	118
118	1	118	119
119	1	119	120
120	1	120	121
121	1	121	122
122	1	122	123
123	1	123	124
124	1	124	125
125	1	125	126
126	1	126	127
127	1	127	128
128	1	128	129
129	1	129	130
130	1	130	131
131	1	131	132
132	1	132	133
133	1	133	134
134	1	134	135
135	1	134	268
136	1	135	136
137	1	136	137
138	1	137	138
139	1	138	139
140	1	139	140
141	1	140	141
142	1	141	142
143	1	142	143
144	1	143	144
145	1	144	145
146	1	145	146
147	1	146	147
148	1	147	148
149	1	148	149
150	1	149	150
151	1	150	151
152	1	151	152
153	1	152	153
154	1	153	154
155	1	154	155
156	1	155	156
157	1	156	157
158	1	157	158
159	1	158	159
160	1	159	160
161	1	160	161
162	1	161	162
163	1	162	163
164	1	163	164
165	1	164	165
166	1	165	166
167	1	166	167
168	1	167	168
169	1	168	169
170	1	169	170
171	1	170	171
172	1	171	172
173	1	172	173
174	1	173	174
175	1	174	175
176	1	175	176
177	1	176	177
178	1	177	178
179	1	178	179
180	1	179	180
181	1	180	181
182	1	181	182
183	1	182	183
184	1	183	184
185	1	184	185
186	1	185	186
187	1	186	187
188	1	187	188
189	1	188	189
190	1	189	190
191	1	190	191
192	1	191	192
193	1	192	193
194	1	193	194
195	1	194	195
196	1	195	196
197	1	196	197
198	1	197	198
199	1	198	199
200	1	199	200
201	1	200	201
202	1	201	202
203	1	202	203
204	1	203	204
205	1	204	205
206	1	205	206
207	1	206	207
208	1	207	208
209	1	208	209
210	1	209	210
211	1	210	211
212	1	211	212
213	1	212	213
214	1	213	214
215	1	214	215
216	1	215	216
217	1	216	217
218	1	217	218
219	1	218	219
220	1	219	220
221	1	220	221
222	1	221	222
223	1	222	223
224	1	223	224
225	1	224	225
226	1	225	226
227	1	226	227
228	1	227	228
229	1	228	229
230	1	229	230
231	1	230	231
232	1	231	232
233	1	232	233
234	1	233	234
235	1	234	235
236	1	235	236
237	1	236	237
238	1	237	238
239	1	238	239
240	1	239	240
241	1	240	241
242	1	241	242
243	1	242	243
244	1	243	244
245	1	244	245
246	1	245	246
247	1	246	247
248	1	247	248
249	1	248	249
250	1	249	250
251	1	250	251
252	1	251	252
253	1	252	253
254	1	253	254
255	1	254	255
256	1	255	256
257	1	256	257
258	1	257	258
259	1	258	259
260	1	259	260
261	1	260	261
262	1	261	262
263	1	262	263
264	1	263	264
265	1	264	265
266	1	265	266
267	1	266	267
268	1	268	269
269	1	269	270
270	1	270	271
271	1	271	272
272	1	272	273
273	1	273	274
274	1	274	275
275	1	275	276
276	1	276	277
277	1	277	278
278	1	278	279
279	1	279	280
280	1	280	281
281	1	281	282
282	1	282	283
283	1	283	284
284	1	284	285
285	1	285	286
286	1	286	287
287	1	287	288
288	1	288	289
289	1	289	290
290	1	290	291
291	1	291	292
292	1	292	293
293	1	293	294
294	1	294	295
295	1	295	296
296	1	296	297
297	1	297	298
298	1	298	299
299	1	299	300
300	1	300	301
301	1	301	302
302	1	302	303
303	1	303	304
304	1	304	305
305	1	305	306
306	1	306	307
307	1	307	308
308	1	308	309
309	1	309	310
310	1	310	311
311	1	311	312
312	1	312	313
313	1	313	314
314	1	314	315
315	1	315	316
316	1	316	317
317	1	317	318
318	1	318	319
319	1	319	320
320	1	320	321
321	1	321	322
322	1	322	323
323	1	323	324
324	1	324	325
325	1	325	326
326	1	326	327
327	1	327	328
328	1	328	329
329	1	329	330
330	1	330	331
331	1	331	332
332	1	332	333
333	1	333	334
334	1	334	335
335	1	335	336
336	1	336	337
337	1	337	338
338	1	338	339
339	1	339	340
340	1	340	341
341	1	341	342
342	1	342	343
343	1	343	344
344	1	344	345
345	1	345	346
346	1	346	347
347	1	347	348
348	1	348	349
349	1	349	350
350	1	350	351
351	1	351	352
352	1	352	353
353	1	353	354
354	1	354	355
355	1	355	356
356	1	356	357
357	1	357	358
358	1	358	359
359	1	359	360