bb466nuc1bl233bn3d30tot700V2

700 atoms
699 bonds
699 angles

1 atom types
1 bond types
1 angle types

-1000 1000 xlo xhi
-1000 1000 ylo yhi
-1000 1000 zlo zhi

Masses

1 1

Atoms

1	1	1	0.0	0.0	0.0	0	0	0
2	1	1	0.0	0.0	1.0	0	0	0
3	1	1	0.0	-0.49999999999999994	1.8660254037844388	0	0	0
4	1	1	0.0	0.0	2.7320508075688776	0	0	0
5	1	1	0.0	-0.49999999999999994	3.5980762113533165	0	0	0
6	1	1	0.0	0.0	4.464101615137755	0	0	0
7	1	1	0.0	-0.49999999999999994	5.330127018922194	0	0	0
8	1	1	0.0	0.0	6.196152422706632	0	0	0
9	1	1	0.0	-0.49999999999999994	7.06217782649107	0	0	0
10	1	1	0.0	0.0	7.928203230275509	0	0	0
11	1	1	0.0	-0.49999999999999994	8.794228634059948	0	0	0
12	1	1	0.0	0.0	9.660254037844387	0	0	0
13	1	1	0.0	-0.49999999999999994	10.526279441628827	0	0	0
14	1	1	0.0	0.0	11.392304845413266	0	0	0
15	1	1	0.0	-0.49999999999999994	12.258330249197705	0	0	0
16	1	1	0.0	0.0	13.124355652982144	0	0	0
17	1	1	0.0	-0.49999999999999994	13.990381056766584	0	0	0
18	1	1	0.0	0.0	14.856406460551023	0	0	0
19	1	1	0.0	-0.49999999999999994	15.722431864335462	0	0	0
20	1	1	0.0	0.0	16.5884572681199	0	0	0
21	1	1	0.0	-0.49999999999999994	17.454482671904337	0	0	0
22	1	1	0.0	0.0	18.320508075688775	0	0	0
23	1	1	0.0	-0.49999999999999994	19.186533479473212	0	0	0
24	1	1	0.0	0.0	20.05255888325765	0	0	0
25	1	1	0.0	-0.49999999999999994	20.918584287042087	0	0	0
26	1	1	0.0	0.0	21.784609690826525	0	0	0
27	1	1	0.0	-0.49999999999999994	22.650635094610962	0	0	0
28	1	1	0.0	0.0	23.5166604983954	0	0	0
29	1	1	0.0	-0.49999999999999994	24.382685902179837	0	0	0
30	1	1	0.0	0.0	25.248711305964274	0	0	0
31	1	1	0.0	-0.49999999999999994	26.114736709748712	0	0	0
32	1	1	0.0	0.0	26.98076211353315	0	0	0
33	1	1	0.0	-0.49999999999999994	27.846787517317587	0	0	0
34	1	1	0.0	0.0	28.712812921102024	0	0	0
35	1	1	0.0	-0.49999999999999994	29.578838324886462	0	0	0
36	1	1	0.0	0.0	30.4448637286709	0	0	0
37	1	1	0.0	-0.49999999999999994	31.310889132455337	0	0	0
38	1	1	0.0	0.0	32.17691453623978	0	0	0
39	1	1	0.0	-0.49999999999999994	33.04293994002422	0	0	0
40	1	1	0.0	0.0	33.90896534380866	0	0	0
41	1	1	0.0	-0.49999999999999994	34.7749907475931	0	0	0
42	1	1	0.0	0.0	35.64101615137754	0	0	0
43	1	1	0.0	-0.49999999999999994	36.50704155516198	0	0	0
44	1	1	0.0	0.0	37.373066958946424	0	0	0
45	1	1	0.0	-0.49999999999999994	38.239092362730865	0	0	0
46	1	1	0.0	0.0	39.105117766515306	0	0	0
47	1	1	0.0	-0.49999999999999994	39.97114317029975	0	0	0
48	1	1	0.0	0.0	40.83716857408419	0	0	0
49	1	1	0.0	-0.49999999999999994	41.70319397786863	0	0	0
50	1	1	0.0	0.0	42.56921938165307	0	0	0
51	1	1	0.0	-0.49999999999999994	43.43524478543751	0	0	0
52	1	1	0.0	0.0	44.30127018922195	0	0	0
53	1	1	0.0	-0.49999999999999994	45.16729559300639	0	0	0
54	1	1	0.0	0.0	46.033320996790835	0	0	0
55	1	1	0.0	-0.49999999999999994	46.899346400575276	0	0	0
56	1	1	0.0	0.0	47.76537180435972	0	0	0
57	1	1	0.0	-0.49999999999999994	48.63139720814416	0	0	0
58	1	1	0.0	0.0	49.4974226119286	0	0	0
59	1	1	0.0	-0.49999999999999994	50.36344801571304	0	0	0
60	1	1	0.0	0.0	51.22947341949748	0	0	0
61	1	1	0.0	-0.49999999999999994	52.09549882328192	0	0	0
62	1	1	0.0	0.0	52.96152422706636	0	0	0
63	1	1	0.0	-0.49999999999999994	53.827549630850804	0	0	0
64	1	1	0.0	0.0	54.693575034635245	0	0	0
65	1	1	0.0	-0.49999999999999994	55.559600438419686	0	0	0
66	1	1	0.0	0.0	56.42562584220413	0	0	0
67	1	1	0.0	-0.49999999999999994	57.29165124598857	0	0	0
68	1	1	0.0	0.0	58.15767664977301	0	0	0
69	1	1	0.0	-0.49999999999999994	59.02370205355745	0	0	0
70	1	1	0.0	0.0	59.88972745734189	0	0	0
71	1	1	0.0	-0.49999999999999994	60.75575286112633	0	0	0
72	1	1	0.0	0.0	61.62177826491077	0	0	0
73	1	1	0.0	-0.49999999999999994	62.487803668695214	0	0	0
74	1	1	0.0	0.0	63.353829072479655	0	0	0
75	1	1	0.0	-0.49999999999999994	64.21985447626409	0	0	0
76	1	1	0.0	0.0	65.08587988004852	0	0	0
77	1	1	0.0	-0.49999999999999994	65.95190528383296	0	0	0
78	1	1	0.0	0.0	66.81793068761739	0	0	0
79	1	1	0.0	-0.49999999999999994	67.68395609140183	0	0	0
80	1	1	0.0	0.0	68.54998149518626	0	0	0
81	1	1	0.0	-0.49999999999999994	69.41600689897069	0	0	0
82	1	1	0.0	0.0	70.28203230275513	0	0	0
83	1	1	0.0	-0.49999999999999994	71.14805770653956	0	0	0
84	1	1	0.0	0.0	72.014083110324	0	0	0
85	1	1	0.0	-0.49999999999999994	72.88010851410843	0	0	0
86	1	1	0.0	0.0	73.74613391789286	0	0	0
87	1	1	0.0	-0.49999999999999994	74.6121593216773	0	0	0
88	1	1	0.0	0.0	75.47818472546173	0	0	0
89	1	1	0.0	-0.49999999999999994	76.34421012924616	0	0	0
90	1	1	0.0	0.0	77.2102355330306	0	0	0
91	1	1	0.0	-0.49999999999999994	78.07626093681503	0	0	0
92	1	1	0.0	0.0	78.94228634059947	0	0	0
93	1	1	0.0	-0.49999999999999994	79.8083117443839	0	0	0
94	1	1	0.0	0.0	80.67433714816833	0	0	0
95	1	1	0.0	-0.49999999999999994	81.54036255195277	0	0	0
96	1	1	0.0	0.0	82.4063879557372	0	0	0
97	1	1	0.0	-0.49999999999999994	83.27241335952164	0	0	0
98	1	1	0.0	0.0	84.13843876330607	0	0	0
99	1	1	0.0	-0.49999999999999994	85.0044641670905	0	0	0
100	1	1	0.0	0.0	85.87048957087494	0	0	0
101	1	1	0.0	-0.49999999999999994	86.73651497465937	0	0	0
102	1	1	0.0	0.0	87.6025403784438	0	0	0
103	1	1	0.0	-0.49999999999999994	88.46856578222824	0	0	0
104	1	1	0.0	0.0	89.33459118601267	0	0	0
105	1	1	0.0	-0.49999999999999994	90.20061658979711	0	0	0
106	1	1	0.0	0.0	91.06664199358154	0	0	0
107	1	1	0.0	-0.49999999999999994	91.93266739736598	0	0	0
108	1	1	0.0	0.0	92.79869280115041	0	0	0
109	1	1	0.0	-0.49999999999999994	93.66471820493484	0	0	0
110	1	1	0.0	0.0	94.53074360871928	0	0	0
111	1	1	0.0	-0.49999999999999994	95.39676901250371	0	0	0
112	1	1	0.0	0.0	96.26279441628814	0	0	0
113	1	1	0.0	-0.49999999999999994	97.12881982007258	0	0	0
114	1	1	0.0	0.0	97.99484522385701	0	0	0
115	1	1	0.0	-0.49999999999999994	98.86087062764145	0	0	0
116	1	1	0.0	0.0	99.72689603142588	0	0	0
117	1	1	0.0	-0.49999999999999994	100.59292143521031	0	0	0
118	1	1	0.0	0.0	101.45894683899475	0	0	0
119	1	1	0.0	-0.49999999999999994	102.32497224277918	0	0	0
120	1	1	0.0	0.0	103.19099764656362	0	0	0
121	1	1	0.0	-0.49999999999999994	104.05702305034805	0	0	0
122	1	1	0.0	0.0	104.92304845413248	0	0	0
123	1	1	0.0	-0.49999999999999994	105.78907385791692	0	0	0
124	1	1	0.0	0.0	106.65509926170135	0	0	0
125	1	1	0.0	-0.49999999999999994	107.52112466548579	0	0	0
126	1	1	0.0	0.0	108.38715006927022	0	0	0
127	1	1	0.0	-0.49999999999999994	109.25317547305465	0	0	0
128	1	1	0.0	0.0	110.11920087683909	0	0	0
129	1	1	0.0	-0.49999999999999994	110.98522628062352	0	0	0
130	1	1	0.0	0.0	111.85125168440796	0	0	0
131	1	1	0.0	-0.49999999999999994	112.71727708819239	0	0	0
132	1	1	0.0	0.0	113.58330249197682	0	0	0
133	1	1	0.0	-0.49999999999999994	114.44932789576126	0	0	0
134	1	1	0.0	0.0	115.31535329954569	0	0	0
135	1	1	0.0	-0.49999999999999994	116.18137870333013	0	0	0
136	1	1	0.0	0.0	117.04740410711456	0	0	0
137	1	1	0.0	-0.49999999999999994	117.913429510899	0	0	0
138	1	1	0.0	0.0	118.77945491468343	0	0	0
139	1	1	0.0	-0.49999999999999994	119.64548031846786	0	0	0
140	1	1	0.0	0.0	120.5115057222523	0	0	0
141	1	1	0.0	-0.49999999999999994	121.37753112603673	0	0	0
142	1	1	0.0	0.0	122.24355652982116	0	0	0
143	1	1	0.0	-0.49999999999999994	123.1095819336056	0	0	0
144	1	1	0.0	0.0	123.97560733739003	0	0	0
145	1	1	0.0	-0.49999999999999994	124.84163274117446	0	0	0
146	1	1	0.0	0.0	125.7076581449589	0	0	0
147	1	1	0.0	-0.49999999999999994	126.57368354874333	0	0	0
148	1	1	0.0	0.0	127.43970895252777	0	0	0
149	1	1	0.0	-0.49999999999999994	128.3057343563122	0	0	0
150	1	1	0.0	0.0	129.17175976009665	0	0	0
151	1	1	0.0	-0.49999999999999994	130.0377851638811	0	0	0
152	1	1	0.0	0.0	130.90381056766554	0	0	0
153	1	1	0.0	-0.49999999999999994	131.76983597145	0	0	0
154	1	1	0.0	0.0	132.63586137523444	0	0	0
155	1	1	0.0	-0.49999999999999994	133.5018867790189	0	0	0
156	1	1	0.0	0.0	134.36791218280334	0	0	0
157	1	1	0.0	-0.49999999999999994	135.23393758658779	0	0	0
158	1	1	0.0	0.0	136.09996299037223	0	0	0
159	1	1	0.0	-0.49999999999999994	136.96598839415668	0	0	0
160	1	1	0.0	0.0	137.83201379794113	0	0	0
161	1	1	0.0	-0.49999999999999994	138.69803920172558	0	0	0
162	1	1	0.0	0.0	139.56406460551003	0	0	0
163	1	1	0.0	-0.49999999999999994	140.43009000929447	0	0	0
164	1	1	0.0	0.0	141.29611541307892	0	0	0
165	1	1	0.0	-0.49999999999999994	142.16214081686337	0	0	0
166	1	1	0.0	0.0	143.02816622064782	0	0	0
167	1	1	0.0	-0.49999999999999994	143.89419162443227	0	0	0
168	1	1	0.0	0.0	144.76021702821672	0	0	0
169	1	1	0.0	-0.49999999999999994	145.62624243200116	0	0	0
170	1	1	0.0	0.0	146.4922678357856	0	0	0
171	1	1	0.0	-0.49999999999999994	147.35829323957006	0	0	0
172	1	1	0.0	0.0	148.2243186433545	0	0	0
173	1	1	0.0	-0.49999999999999994	149.09034404713896	0	0	0
174	1	1	0.0	0.0	149.9563694509234	0	0	0
175	1	1	0.0	-0.49999999999999994	150.82239485470785	0	0	0
176	1	1	0.0	0.0	151.6884202584923	0	0	0
177	1	1	0.0	-0.49999999999999994	152.55444566227675	0	0	0
178	1	1	0.0	0.0	153.4204710660612	0	0	0
179	1	1	0.0	-0.49999999999999994	154.28649646984564	0	0	0
180	1	1	0.0	0.0	155.1525218736301	0	0	0
181	1	1	0.0	-0.49999999999999994	156.01854727741454	0	0	0
182	1	1	0.0	0.0	156.884572681199	0	0	0
183	1	1	0.0	-0.49999999999999994	157.75059808498344	0	0	0
184	1	1	0.0	0.0	158.61662348876789	0	0	0
185	1	1	0.0	-0.49999999999999994	159.48264889255233	0	0	0
186	1	1	0.0	0.0	160.34867429633678	0	0	0
187	1	1	0.0	-0.49999999999999994	161.21469970012123	0	0	0
188	1	1	0.0	0.0	162.08072510390568	0	0	0
189	1	1	0.0	-0.49999999999999994	162.94675050769013	0	0	0
190	1	1	0.0	0.0	163.81277591147457	0	0	0
191	1	1	0.0	-0.49999999999999994	164.67880131525902	0	0	0
192	1	1	0.0	0.0	165.54482671904347	0	0	0
193	1	1	0.0	-0.49999999999999994	166.41085212282792	0	0	0
194	1	1	0.0	0.0	167.27687752661237	0	0	0
195	1	1	0.0	-0.49999999999999994	168.14290293039682	0	0	0
196	1	1	0.0	0.0	169.00892833418126	0	0	0
197	1	1	0.0	-0.49999999999999994	169.8749537379657	0	0	0
198	1	1	0.0	0.0	170.74097914175016	0	0	0
199	1	1	0.0	-0.49999999999999994	171.6070045455346	0	0	0
200	1	1	0.0	0.0	172.47302994931906	0	0	0
201	1	1	0.0	-0.49999999999999994	173.3390553531035	0	0	0
202	1	1	0.0	0.0	174.20508075688795	0	0	0
203	1	1	0.0	-0.49999999999999994	175.0711061606724	0	0	0
204	1	1	0.0	0.0	175.93713156445685	0	0	0
205	1	1	0.0	-0.49999999999999994	176.8031569682413	0	0	0
206	1	1	0.0	0.0	177.66918237202574	0	0	0
207	1	1	0.0	-0.49999999999999994	178.5352077758102	0	0	0
208	1	1	0.0	0.0	179.40123317959464	0	0	0
209	1	1	0.0	-0.49999999999999994	180.2672585833791	0	0	0
210	1	1	0.0	0.0	181.13328398716354	0	0	0
211	1	1	0.0	-0.49999999999999994	181.99930939094799	0	0	0
212	1	1	0.0	0.0	182.86533479473243	0	0	0
213	1	1	0.0	-0.49999999999999994	183.73136019851688	0	0	0
214	1	1	0.0	0.0	184.59738560230133	0	0	0
215	1	1	0.0	-0.49999999999999994	185.46341100608578	0	0	0
216	1	1	0.0	0.0	186.32943640987023	0	0	0
217	1	1	0.0	-0.49999999999999994	187.19546181365467	0	0	0
218	1	1	0.0	0.0	188.06148721743912	0	0	0
219	1	1	0.0	-0.49999999999999994	188.92751262122357	0	0	0
220	1	1	0.0	0.0	189.79353802500802	0	0	0
221	1	1	0.0	-0.49999999999999994	190.65956342879247	0	0	0
222	1	1	0.0	0.0	191.52558883257691	0	0	0
223	1	1	0.0	-0.49999999999999994	192.39161423636136	0	0	0
224	1	1	0.0	0.0	193.2576396401458	0	0	0
225	1	1	0.0	-0.49999999999999994	194.12366504393026	0	0	0
226	1	1	0.0	0.0	194.9896904477147	0	0	0
227	1	1	0.0	-0.49999999999999994	195.85571585149916	0	0	0
228	1	1	0.0	0.0	196.7217412552836	0	0	0
229	1	1	0.0	-0.49999999999999994	197.58776665906805	0	0	0
230	1	1	0.0	0.0	198.4537920628525	0	0	0
231	1	1	0.0	-0.49999999999999994	199.31981746663695	0	0	0
232	1	1	0.0	0.0	200.1858428704214	0	0	0
233	1	1	0.0	-0.49999999999999994	201.05186827420584	0	0	0
234	1	1	0.0	0.0	201.9178936779903	0	0	0
235	1	1	-0.8381566270941225	0.4387328835779878	202.24194139874382	0	0	0
236	1	1	-1.6763132541882384	0.6566628458553545	202.74194139874382	0	0	0
237	1	1	-2.5144698812823543	1.1986405288862578	202.80320851516584	0	0	0
238	1	1	-3.35262650837647	1.4165704911636245	203.30320851516584	0	0	0
239	1	1	-4.190783135470586	1.9585481741945279	203.36447563158785	0	0	0
240	1	1	-5.028939762564701	2.1764781364718946	203.86447563158785	0	0	0
241	1	1	-5.867096389658817	2.7184558195027977	203.92574274800987	0	0	0
242	1	1	-6.705253016752933	2.936385781780164	204.42574274800987	0	0	0
243	1	1	-7.543409643847049	3.4783634648110677	204.48700986443188	0	0	0
244	1	1	-8.381566270941164	3.6962934270884342	204.98700986443188	0	0	0
245	1	1	-9.219722898035279	4.238271110119338	205.0482769808539	0	0	0
246	1	1	-10.057879525129394	4.456201072396705	205.5482769808539	0	0	0
247	1	1	-10.896036152223509	4.998178755427608	205.60954409727591	0	0	0
248	1	1	-11.734192779317624	5.216108717704975	206.10954409727591	0	0	0
249	1	1	-12.572349406411739	5.758086400735878	206.17081121369793	0	0	0
250	1	1	-13.410506033505854	5.976016363013245	206.67081121369793	0	0	0
251	1	1	-14.248662660599969	6.517994046044148	206.73207833011995	0	0	0
252	1	1	-15.086819287694084	6.735924008321515	207.23207833011995	0	0	0
253	1	1	-15.924975914788199	7.277901691352418	207.29334544654196	0	0	0
254	1	1	-16.763132541882314	7.495831653629785	207.79334544654196	0	0	0
255	1	1	-17.60128916897643	8.037809336660688	207.85461256296398	0	0	0
256	1	1	-18.439445796070544	8.255739298938055	208.35461256296398	0	0	0
257	1	1	-19.27760242316466	8.797716981968959	208.415879679386	0	0	0
258	1	1	-20.115759050258774	9.015646944246326	208.915879679386	0	0	0
259	1	1	-20.95391567735289	9.55762462727723	208.977146795808	0	0	0
260	1	1	-21.792072304447004	9.775554589554597	209.477146795808	0	0	0
261	1	1	-22.63022893154112	10.3175322725855	209.53841391223003	0	0	0
262	1	1	-23.468385558635234	10.535462234862868	210.03841391223003	0	0	0
263	1	1	-24.30654218572935	11.077439917893772	210.09968102865204	0	0	0
264	1	1	-25.144698812823464	11.295369880171139	210.59968102865204	0	0	0
265	1	1	-25.98285543991758	11.837347563202043	210.66094814507406	0	0	0
266	1	1	-26.821012067011694	12.05527752547941	211.16094814507406	0	0	0
267	1	1	-27.65916869410581	12.597255208510314	211.22221526149607	0	0	0
268	1	1	-28.497325321199924	12.81518517078768	211.72221526149607	0	0	0
269	1	1	-29.33548194829404	13.357162853818584	211.7834823779181	0	0	0
270	1	1	-30.173638575388154	13.575092816095951	212.2834823779181	0	0	0
271	1	1	-31.01179520248227	14.117070499126855	212.3447494943401	0	0	0
272	1	1	-31.849951829576383	14.335000461404222	212.8447494943401	0	0	0
273	1	1	-32.6881084566705	14.876978144435126	212.90601661076212	0	0	0
274	1	1	-33.52626508376461	15.094908106712493	213.40601661076212	0	0	0
275	1	1	-34.36442171085873	15.636885789743397	213.46728372718414	0	0	0
276	1	1	-35.20257833795284	15.854815752020764	213.96728372718414	0	0	0
277	1	1	-36.04073496504696	16.396793435051666	214.02855084360615	0	0	0
278	1	1	-36.87889159214107	16.614723397329033	214.52855084360615	0	0	0
279	1	1	-37.71704821923519	17.156701080359937	214.58981796002817	0	0	0
280	1	1	-38.5552048463293	17.374631042637304	215.08981796002817	0	0	0
281	1	1	-39.39336147342342	17.91660872566821	215.1510850764502	0	0	0
282	1	1	-40.23151810051753	18.134538687945575	215.6510850764502	0	0	0
283	1	1	-41.06967472761165	18.67651637097648	215.7123521928722	0	0	0
284	1	1	-41.90783135470576	18.894446333253846	216.2123521928722	0	0	0
285	1	1	-42.74598798179988	19.43642401628475	216.27361930929422	0	0	0
286	1	1	-43.58414460889399	19.654353978562117	216.77361930929422	0	0	0
287	1	1	-44.42230123598811	20.19633166159302	216.83488642571623	0	0	0
288	1	1	-45.26045786308222	20.414261623870388	217.33488642571623	0	0	0
289	1	1	-46.09861449017634	20.956239306901292	217.39615354213825	0	0	0
290	1	1	-46.93677111727045	21.17416926917866	217.89615354213825	0	0	0
291	1	1	-47.77492774436457	21.716146952209563	217.95742065856027	0	0	0
292	1	1	-48.61308437145868	21.93407691448693	218.45742065856027	0	0	0
293	1	1	-49.4512409985528	22.476054597517834	218.51868777498228	0	0	0
294	1	1	-50.28939762564691	22.6939845597952	219.01868777498228	0	0	0
295	1	1	-51.12755425274103	23.235962242826105	219.0799548914043	0	0	0
296	1	1	-51.96571087983514	23.45389220510347	219.5799548914043	0	0	0
297	1	1	-52.80386750692926	23.995869888134376	219.64122200782631	0	0	0
298	1	1	-53.64202413402337	24.213799850411743	220.14122200782631	0	0	0
299	1	1	-54.48018076111749	24.755777533442647	220.20248912424833	0	0	0
300	1	1	-55.3183373882116	24.973707495720014	220.70248912424833	0	0	0
301	1	1	-56.15649401530572	25.515685178750918	220.76375624067035	0	0	0
302	1	1	-56.99465064239983	25.733615141028285	221.26375624067035	0	0	0
303	1	1	-57.83280726949395	26.27559282405919	221.32502335709236	0	0	0
304	1	1	-58.67096389658806	26.493522786336555	221.82502335709236	0	0	0
305	1	1	-59.50912052368218	27.03550046936746	221.88629047351438	0	0	0
306	1	1	-60.34727715077629	27.253430431644826	222.38629047351438	0	0	0
307	1	1	-61.18543377787041	27.79540811467573	222.4475575899364	0	0	0
308	1	1	-62.02359040496452	28.013338076953097	222.9475575899364	0	0	0
309	1	1	-62.86174703205864	28.555315759984	223.0088247063584	0	0	0
310	1	1	-63.69990365915275	28.77324572226137	223.5088247063584	0	0	0
311	1	1	-64.53806028624687	29.315223405292272	223.57009182278043	0	0	0
312	1	1	-65.376216913341	29.53315336756964	224.07009182278043	0	0	0
313	1	1	-66.21437354043512	30.075131050600543	224.13135893920244	0	0	0
314	1	1	-67.05253016752924	30.29306101287791	224.63135893920244	0	0	0
315	1	1	-67.89068679462336	30.835038695908814	224.69262605562446	0	0	0
316	1	1	-68.72884342171749	31.05296865818618	225.19262605562446	0	0	0
317	1	1	-69.56700004881161	31.594946341217085	225.25389317204647	0	0	0
318	1	1	-70.40515667590573	31.812876303494452	225.75389317204647	0	0	0
319	1	1	-71.24331330299985	32.354853986525356	225.8151602884685	0	0	0
320	1	1	-72.08146993009397	32.57278394880272	226.3151602884685	0	0	0
321	1	1	-72.9196265571881	33.11476163183362	226.3764274048905	0	0	0
322	1	1	-73.75778318428222	33.33269159411099	226.8764274048905	0	0	0
323	1	1	-74.59593981137634	33.87466927714189	226.93769452131252	0	0	0
324	1	1	-75.43409643847046	34.09259923941926	227.43769452131252	0	0	0
325	1	1	-76.27225306556458	34.63457692245016	227.49896163773454	0	0	0
326	1	1	-77.1104096926587	34.852506884727525	227.99896163773454	0	0	0
327	1	1	-77.94856631975283	35.394484567758425	228.06022875415655	0	0	0
328	1	1	-78.78672294684695	35.61241453003579	228.56022875415655	0	0	0
329	1	1	-79.62487957394107	36.15439221306669	228.62149587057857	0	0	0
330	1	1	-80.4630362010352	36.37232217534406	229.12149587057857	0	0	0
331	1	1	-81.30119282812932	36.91429985837496	229.1827629870006	0	0	0
332	1	1	-82.13934945522344	37.13222982065233	229.6827629870006	0	0	0
333	1	1	-82.97750608231756	37.67420750368323	229.7440301034226	0	0	0
334	1	1	-83.81566270941168	37.892137465960595	230.2440301034226	0	0	0
335	1	1	-84.6538193365058	38.434115148991495	230.30529721984462	0	0	0
336	1	1	-85.49197596359993	38.65204511126886	230.80529721984462	0	0	0
337	1	1	-86.33013259069405	39.19402279429976	230.86656433626663	0	0	0
338	1	1	-87.16828921778817	39.41195275657713	231.36656433626663	0	0	0
339	1	1	-88.0064458448823	39.95393043960803	231.42783145268865	0	0	0
340	1	1	-88.84460247197642	40.1718604018854	231.92783145268865	0	0	0
341	1	1	-89.68275909907054	40.7138380849163	231.98909856911067	0	0	0
342	1	1	-90.52091572616466	40.931768047193664	232.48909856911067	0	0	0
343	1	1	-91.35907235325878	41.473745730224564	232.55036568553268	0	0	0
344	1	1	-92.1972289803529	41.69167569250193	233.05036568553268	0	0	0
345	1	1	-93.03538560744703	42.23365337553283	233.1116328019547	0	0	0
346	1	1	-93.87354223454115	42.4515833378102	233.6116328019547	0	0	0
347	1	1	-94.71169886163527	42.9935610208411	233.67289991837671	0	0	0
348	1	1	-95.54985548872939	43.211490983118466	234.17289991837671	0	0	0
349	1	1	-96.38801211582351	43.75346866614937	234.23416703479873	0	0	0
350	1	1	-97.22616874291764	43.97139862842673	234.73416703479873	0	0	0
351	1	1	-98.06432537001176	44.513376311457634	234.79543415122075	0	0	0
352	1	1	-98.90248199710588	44.731306273735	235.29543415122075	0	0	0
353	1	1	-99.7406386242	45.2732839567659	235.35670126764276	0	0	0
354	1	1	-100.57879525129412	45.49121391904327	235.85670126764276	0	0	0
355	1	1	-101.41695187838825	46.03319160207417	235.91796838406478	0	0	0
356	1	1	-102.25510850548237	46.251121564351536	236.41796838406478	0	0	0
357	1	1	-103.09326513257649	46.793099247382436	236.4792355004868	0	0	0
358	1	1	-103.93142175967061	47.0110292096598	236.9792355004868	0	0	0
359	1	1	-104.76957838676474	47.5530068926907	237.0405026169088	0	0	0
360	1	1	-105.60773501385886	47.77093685496807	237.5405026169088	0	0	0
361	1	1	-106.44589164095298	48.31291453799897	237.60176973333083	0	0	0
362	1	1	-107.2840482680471	48.53084450027634	238.10176973333083	0	0	0
363	1	1	-108.12220489514122	49.07282218330724	238.16303684975284	0	0	0
364	1	1	-108.96036152223535	49.290752145584605	238.66303684975284	0	0	0
365	1	1	-109.79851814932947	49.832729828615506	238.72430396617486	0	0	0
366	1	1	-110.63667477642359	50.05065979089287	239.22430396617486	0	0	0
367	1	1	-111.47483140351771	50.59263747392377	239.28557108259687	0	0	0
368	1	1	-112.31298803061183	50.81056743620114	239.78557108259687	0	0	0
369	1	1	-113.15114465770596	51.35254511923204	239.8468381990189	0	0	0
370	1	1	-113.98930128480008	51.57047508150941	240.3468381990189	0	0	0
371	1	1	-114.8274579118942	52.11245276454031	240.4081053154409	0	0	0
372	1	1	-115.66561453898832	52.330382726817675	240.9081053154409	0	0	0
373	1	1	-116.50377116608244	52.872360409848575	240.96937243186292	0	0	0
374	1	1	-117.34192779317657	53.09029037212594	241.46937243186292	0	0	0
375	1	1	-118.18008442027069	53.63226805515684	241.53063954828494	0	0	0
376	1	1	-119.01824104736481	53.85019801743421	242.03063954828494	0	0	0
377	1	1	-119.85639767445893	54.39217570046511	242.09190666470695	0	0	0
378	1	1	-120.69455430155305	54.61010566274248	242.59190666470695	0	0	0
379	1	1	-121.53271092864718	55.15208334577338	242.65317378112897	0	0	0
380	1	1	-122.3708675557413	55.370013308050744	243.15317378112897	0	0	0
381	1	1	-123.20902418283542	55.911990991081645	243.214440897551	0	0	0
382	1	1	-124.04718080992954	56.12992095335901	243.714440897551	0	0	0
383	1	1	-124.88533743702367	56.67189863638991	243.775708013973	0	0	0
384	1	1	-125.72349406411779	56.88982859866728	244.275708013973	0	0	0
385	1	1	-126.56165069121191	57.43180628169818	244.33697513039502	0	0	0
386	1	1	-127.39980731830603	57.649736243975546	244.83697513039502	0	0	0
387	1	1	-128.23796394540014	58.19171392700645	244.89824224681703	0	0	0
388	1	1	-129.07612057249426	58.409643889283814	245.39824224681703	0	0	0
389	1	1	-129.91427719958838	58.951621572314714	245.45950936323905	0	0	0
390	1	1	-130.7524338266825	59.16955153459208	245.95950936323905	0	0	0
391	1	1	-131.59059045377663	59.71152921762298	246.02077647966107	0	0	0
392	1	1	-132.42874708087075	59.92945917990035	246.52077647966107	0	0	0
393	1	1	-133.26690370796487	60.47143686293125	246.58204359608308	0	0	0
394	1	1	-134.105060335059	60.689366825208616	247.08204359608308	0	0	0
395	1	1	-134.94321696215312	61.231344508239516	247.1433107125051	0	0	0
396	1	1	-135.78137358924724	61.44927447051688	247.6433107125051	0	0	0
397	1	1	-136.61953021634136	61.991252153547784	247.7045778289271	0	0	0
398	1	1	-137.45768684343548	62.20918211582515	248.2045778289271	0	0	0
399	1	1	-138.2958434705296	62.75115979885605	248.26584494534913	0	0	0
400	1	1	-139.13400009762373	62.96908976113342	248.76584494534913	0	0	0
401	1	1	-139.97215672471785	63.51106744416432	248.82711206177115	0	0	0
402	1	1	-140.81031335181197	63.728997406441685	249.32711206177115	0	0	0
403	1	1	-141.6484699789061	64.27097508947259	249.38837917819316	0	0	0
404	1	1	-142.48662660600021	64.48890505174995	249.88837917819316	0	0	0
405	1	1	-143.32478323309434	65.03088273478086	249.94964629461518	0	0	0
406	1	1	-144.16293986018846	65.24881269705823	250.44964629461518	0	0	0
407	1	1	-145.00109648728258	65.79079038008913	250.5109134110372	0	0	0
408	1	1	-145.8392531143767	66.0087203423665	251.0109134110372	0	0	0
409	1	1	-146.67740974147083	66.55069802539741	251.0721805274592	0	0	0
410	1	1	-147.51556636856495	66.76862798767478	251.5721805274592	0	0	0
411	1	1	-148.35372299565907	67.31060567070568	251.63344764388123	0	0	0
412	1	1	-149.1918796227532	67.52853563298305	252.13344764388123	0	0	0
413	1	1	-150.0300362498473	68.07051331601396	252.19471476030324	0	0	0
414	1	1	-150.86819287694144	68.28844327829133	252.69471476030324	0	0	0
415	1	1	-151.70634950403556	68.83042096132223	252.75598187672526	0	0	0
416	1	1	-152.54450613112968	69.0483509235996	253.25598187672526	0	0	0
417	1	1	-153.3826627582238	69.59032860663051	253.31724899314727	0	0	0
418	1	1	-154.22081938531792	69.80825856890787	253.81724899314727	0	0	0
419	1	1	-155.05897601241205	70.35023625193878	253.8785161095693	0	0	0
420	1	1	-155.89713263950617	70.56816621421615	254.3785161095693	0	0	0
421	1	1	-156.7352892666003	71.11014389724706	254.4397832259913	0	0	0
422	1	1	-157.5734458936944	71.32807385952442	254.9397832259913	0	0	0
423	1	1	-158.41160252078853	71.87005154255533	255.00105034241332	0	0	0
424	1	1	-159.24975914788266	72.0879815048327	255.50105034241332	0	0	0
425	1	1	-160.08791577497678	72.6299591878636	255.56231745883534	0	0	0
426	1	1	-160.9260724020709	72.84788915014097	256.06231745883537	0	0	0
427	1	1	-161.76422902916502	73.38986683317188	256.1235845752574	0	0	0
428	1	1	-162.60238565625914	73.60779679544925	256.6235845752574	0	0	0
429	1	1	-163.44054228335327	74.14977447848015	256.6848516916794	0	0	0
430	1	1	-164.2786989104474	74.36770444075752	257.1848516916794	0	0	0
431	1	1	-165.1168555375415	74.90968212378843	257.2461188081014	0	0	0
432	1	1	-165.95501216463563	75.1276120860658	257.7461188081014	0	0	0
433	1	1	-166.79316879172976	75.6695897690967	257.80738592452343	0	0	0
434	1	1	-167.63132541882388	75.88751973137407	258.30738592452343	0	0	0
435	1	1	-168.469482045918	76.42949741440498	258.36865304094545	0	0	0
436	1	1	-169.30763867301212	76.64742737668234	258.86865304094545	0	0	0
437	1	1	-170.14579530010624	77.18940505971325	258.92992015736746	0	0	0
438	1	1	-170.98395192720037	77.40733502199062	259.42992015736746	0	0	0
439	1	1	-171.8221085542945	77.94931270502153	259.4911872737895	0	0	0
440	1	1	-172.6602651813886	78.1672426672989	259.9911872737895	0	0	0
441	1	1	-173.49842180848273	78.7092203503298	260.0524543902115	0	0	0
442	1	1	-174.33657843557685	78.92715031260717	260.5524543902115	0	0	0
443	1	1	-175.17473506267098	79.46912799563808	260.6137215066335	0	0	0
444	1	1	-176.0128916897651	79.68705795791544	261.1137215066335	0	0	0
445	1	1	-176.85104831685922	80.22903564094635	261.1749886230555	0	0	0
446	1	1	-177.68920494395334	80.44696560322372	261.6749886230555	0	0	0
447	1	1	-178.52736157104746	80.98894328625462	261.73625573947754	0	0	0
448	1	1	-179.3655181981416	81.20687324853199	262.23625573947754	0	0	0
449	1	1	-180.2036748252357	81.7488509315629	262.29752285589956	0	0	0
450	1	1	-181.04183145232983	81.96678089384027	262.79752285589956	0	0	0
451	1	1	-181.87998807942395	82.50875857687117	262.8587899723216	0	0	0
452	1	1	-182.71814470651807	82.72668853914854	263.3587899723216	0	0	0
453	1	1	-183.5563013336122	83.26866622217945	263.4200570887436	0	0	0
454	1	1	-184.39445796070632	83.48659618445681	263.9200570887436	0	0	0
455	1	1	-185.23261458780044	84.02857386748772	263.9813242051656	0	0	0
456	1	1	-186.07077121489456	84.24650382976509	264.4813242051656	0	0	0
457	1	1	-186.90892784198869	84.788481512796	264.5425913215876	0	0	0
458	1	1	-187.7470844690828	85.00641147507336	265.0425913215876	0	0	0
459	1	1	-188.58524109617693	85.54838915810427	265.10385843800964	0	0	0
460	1	1	-189.42339772327105	85.76631912038164	265.60385843800964	0	0	0
461	1	1	-190.26155435036517	86.30829680341255	265.66512555443165	0	0	0
462	1	1	-191.0997109774593	86.52622676568991	266.16512555443165	0	0	0
463	1	1	-191.93786760455342	87.06820444872082	266.22639267085367	0	0	0
464	1	1	-192.77602423164754	87.28613441099819	266.72639267085367	0	0	0
465	1	1	-193.61418085874166	87.8281120940291	266.7876597872757	0	0	0
466	1	1	-194.45233748583578	88.04604205630646	267.2876597872757	0	0	0
467	1	1	-195.2904941129299	88.58801973933737	267.3489269036977	0	0	0
468	1	1	0.8381566270940989	0.061267116421936024	202.45987136102124	0	0	0
469	1	1	1.6763132541881913	-0.1566628458555233	202.95987136102124	0	0	0
470	1	1	2.5144698812822837	0.167384874897966	203.3986042445993	0	0	0
471	1	1	3.352626508376376	-0.05054508737949334	203.8986042445993	0	0	0
472	1	1	4.190783135470468	0.27350263337399594	204.33733712817738	0	0	0
473	1	1	5.02893976256456	0.0555726710965366	204.83733712817738	0	0	0
474	1	1	5.867096389658653	0.37962039185002594	205.27607001175545	0	0	0
475	1	1	6.705253016752746	0.1616904295725666	205.77607001175545	0	0	0
476	1	1	7.5434096438468385	0.48573815032605594	206.21480289533352	0	0	0
477	1	1	8.381566270940931	0.26780818804859663	206.71480289533352	0	0	0
478	1	1	9.219722898035023	0.5918559088020859	207.1535357789116	0	0	0
479	1	1	10.057879525129115	0.37392594652462663	207.6535357789116	0	0	0
480	1	1	10.896036152223207	0.6979736672781159	208.09226866248966	0	0	0
481	1	1	11.734192779317299	0.48004370500065663	208.59226866248966	0	0	0
482	1	1	12.57234940641139	0.8040914257541459	209.03100154606773	0	0	0
483	1	1	13.410506033505483	0.5861614634766866	209.53100154606773	0	0	0
484	1	1	14.248662660599575	0.9102091842301759	209.9697344296458	0	0	0
485	1	1	15.086819287693666	0.6922792219527166	210.4697344296458	0	0	0
486	1	1	15.924975914787758	1.0163269427062058	210.90846731322387	0	0	0
487	1	1	16.763132541881852	0.7983969804287465	211.40846731322387	0	0	0
488	1	1	17.601289168975946	1.1224447011822358	211.84720019680194	0	0	0
489	1	1	18.43944579607004	0.9045147389047765	212.34720019680194	0	0	0
490	1	1	19.277602423164133	1.2285624596582658	212.78593308038	0	0	0
491	1	1	20.115759050258227	1.0106324973808065	213.28593308038	0	0	0
492	1	1	20.95391567735232	1.3346802181342958	213.72466596395807	0	0	0
493	1	1	21.792072304446414	1.1167502558568365	214.22466596395807	0	0	0
494	1	1	22.630228931540508	1.4407979766103258	214.66339884753614	0	0	0
495	1	1	23.4683855586346	1.2228680143328665	215.16339884753614	0	0	0
496	1	1	24.306542185728695	1.5469157350863558	215.6021317311142	0	0	0
497	1	1	25.14469881282279	1.3289857728088965	216.1021317311142	0	0	0