bb533nuc1bl266bn3d30tot800V2

799 atoms
798 bonds
798 angles

1 atom types
1 bond types
1 angle types

-1000 1000 xlo xhi
-1000 1000 ylo yhi
-1000 1000 zlo zhi

Masses

1 1

Atoms

1	1	1	0.0	0.0	0.0	0	0	0
2	1	1	0.0	0.0	1.0	0	0	0
3	1	1	0.0	-0.49999999999999994	1.8660254037844388	0	0	0
4	1	1	0.0	0.0	2.7320508075688776	0	0	0
5	1	1	0.0	-0.49999999999999994	3.5980762113533165	0	0	0
6	1	1	0.0	0.0	4.464101615137755	0	0	0
7	1	1	0.0	-0.49999999999999994	5.330127018922194	0	0	0
8	1	1	0.0	0.0	6.196152422706632	0	0	0
9	1	1	0.0	-0.49999999999999994	7.06217782649107	0	0	0
10	1	1	0.0	0.0	7.928203230275509	0	0	0
11	1	1	0.0	-0.49999999999999994	8.794228634059948	0	0	0
12	1	1	0.0	0.0	9.660254037844387	0	0	0
13	1	1	0.0	-0.49999999999999994	10.526279441628827	0	0	0
14	1	1	0.0	0.0	11.392304845413266	0	0	0
15	1	1	0.0	-0.49999999999999994	12.258330249197705	0	0	0
16	1	1	0.0	0.0	13.124355652982144	0	0	0
17	1	1	0.0	-0.49999999999999994	13.990381056766584	0	0	0
18	1	1	0.0	0.0	14.856406460551023	0	0	0
19	1	1	0.0	-0.49999999999999994	15.722431864335462	0	0	0
20	1	1	0.0	0.0	16.5884572681199	0	0	0
21	1	1	0.0	-0.49999999999999994	17.454482671904337	0	0	0
22	1	1	0.0	0.0	18.320508075688775	0	0	0
23	1	1	0.0	-0.49999999999999994	19.186533479473212	0	0	0
24	1	1	0.0	0.0	20.05255888325765	0	0	0
25	1	1	0.0	-0.49999999999999994	20.918584287042087	0	0	0
26	1	1	0.0	0.0	21.784609690826525	0	0	0
27	1	1	0.0	-0.49999999999999994	22.650635094610962	0	0	0
28	1	1	0.0	0.0	23.5166604983954	0	0	0
29	1	1	0.0	-0.49999999999999994	24.382685902179837	0	0	0
30	1	1	0.0	0.0	25.248711305964274	0	0	0
31	1	1	0.0	-0.49999999999999994	26.114736709748712	0	0	0
32	1	1	0.0	0.0	26.98076211353315	0	0	0
33	1	1	0.0	-0.49999999999999994	27.846787517317587	0	0	0
34	1	1	0.0	0.0	28.712812921102024	0	0	0
35	1	1	0.0	-0.49999999999999994	29.578838324886462	0	0	0
36	1	1	0.0	0.0	30.4448637286709	0	0	0
37	1	1	0.0	-0.49999999999999994	31.310889132455337	0	0	0
38	1	1	0.0	0.0	32.17691453623978	0	0	0
39	1	1	0.0	-0.49999999999999994	33.04293994002422	0	0	0
40	1	1	0.0	0.0	33.90896534380866	0	0	0
41	1	1	0.0	-0.49999999999999994	34.7749907475931	0	0	0
42	1	1	0.0	0.0	35.64101615137754	0	0	0
43	1	1	0.0	-0.49999999999999994	36.50704155516198	0	0	0
44	1	1	0.0	0.0	37.373066958946424	0	0	0
45	1	1	0.0	-0.49999999999999994	38.239092362730865	0	0	0
46	1	1	0.0	0.0	39.105117766515306	0	0	0
47	1	1	0.0	-0.49999999999999994	39.97114317029975	0	0	0
48	1	1	0.0	0.0	40.83716857408419	0	0	0
49	1	1	0.0	-0.49999999999999994	41.70319397786863	0	0	0
50	1	1	0.0	0.0	42.56921938165307	0	0	0
51	1	1	0.0	-0.49999999999999994	43.43524478543751	0	0	0
52	1	1	0.0	0.0	44.30127018922195	0	0	0
53	1	1	0.0	-0.49999999999999994	45.16729559300639	0	0	0
54	1	1	0.0	0.0	46.033320996790835	0	0	0
55	1	1	0.0	-0.49999999999999994	46.899346400575276	0	0	0
56	1	1	0.0	0.0	47.76537180435972	0	0	0
57	1	1	0.0	-0.49999999999999994	48.63139720814416	0	0	0
58	1	1	0.0	0.0	49.4974226119286	0	0	0
59	1	1	0.0	-0.49999999999999994	50.36344801571304	0	0	0
60	1	1	0.0	0.0	51.22947341949748	0	0	0
61	1	1	0.0	-0.49999999999999994	52.09549882328192	0	0	0
62	1	1	0.0	0.0	52.96152422706636	0	0	0
63	1	1	0.0	-0.49999999999999994	53.827549630850804	0	0	0
64	1	1	0.0	0.0	54.693575034635245	0	0	0
65	1	1	0.0	-0.49999999999999994	55.559600438419686	0	0	0
66	1	1	0.0	0.0	56.42562584220413	0	0	0
67	1	1	0.0	-0.49999999999999994	57.29165124598857	0	0	0
68	1	1	0.0	0.0	58.15767664977301	0	0	0
69	1	1	0.0	-0.49999999999999994	59.02370205355745	0	0	0
70	1	1	0.0	0.0	59.88972745734189	0	0	0
71	1	1	0.0	-0.49999999999999994	60.75575286112633	0	0	0
72	1	1	0.0	0.0	61.62177826491077	0	0	0
73	1	1	0.0	-0.49999999999999994	62.487803668695214	0	0	0
74	1	1	0.0	0.0	63.353829072479655	0	0	0
75	1	1	0.0	-0.49999999999999994	64.21985447626409	0	0	0
76	1	1	0.0	0.0	65.08587988004852	0	0	0
77	1	1	0.0	-0.49999999999999994	65.95190528383296	0	0	0
78	1	1	0.0	0.0	66.81793068761739	0	0	0
79	1	1	0.0	-0.49999999999999994	67.68395609140183	0	0	0
80	1	1	0.0	0.0	68.54998149518626	0	0	0
81	1	1	0.0	-0.49999999999999994	69.41600689897069	0	0	0
82	1	1	0.0	0.0	70.28203230275513	0	0	0
83	1	1	0.0	-0.49999999999999994	71.14805770653956	0	0	0
84	1	1	0.0	0.0	72.014083110324	0	0	0
85	1	1	0.0	-0.49999999999999994	72.88010851410843	0	0	0
86	1	1	0.0	0.0	73.74613391789286	0	0	0
87	1	1	0.0	-0.49999999999999994	74.6121593216773	0	0	0
88	1	1	0.0	0.0	75.47818472546173	0	0	0
89	1	1	0.0	-0.49999999999999994	76.34421012924616	0	0	0
90	1	1	0.0	0.0	77.2102355330306	0	0	0
91	1	1	0.0	-0.49999999999999994	78.07626093681503	0	0	0
92	1	1	0.0	0.0	78.94228634059947	0	0	0
93	1	1	0.0	-0.49999999999999994	79.8083117443839	0	0	0
94	1	1	0.0	0.0	80.67433714816833	0	0	0
95	1	1	0.0	-0.49999999999999994	81.54036255195277	0	0	0
96	1	1	0.0	0.0	82.4063879557372	0	0	0
97	1	1	0.0	-0.49999999999999994	83.27241335952164	0	0	0
98	1	1	0.0	0.0	84.13843876330607	0	0	0
99	1	1	0.0	-0.49999999999999994	85.0044641670905	0	0	0
100	1	1	0.0	0.0	85.87048957087494	0	0	0
101	1	1	0.0	-0.49999999999999994	86.73651497465937	0	0	0
102	1	1	0.0	0.0	87.6025403784438	0	0	0
103	1	1	0.0	-0.49999999999999994	88.46856578222824	0	0	0
104	1	1	0.0	0.0	89.33459118601267	0	0	0
105	1	1	0.0	-0.49999999999999994	90.20061658979711	0	0	0
106	1	1	0.0	0.0	91.06664199358154	0	0	0
107	1	1	0.0	-0.49999999999999994	91.93266739736598	0	0	0
108	1	1	0.0	0.0	92.79869280115041	0	0	0
109	1	1	0.0	-0.49999999999999994	93.66471820493484	0	0	0
110	1	1	0.0	0.0	94.53074360871928	0	0	0
111	1	1	0.0	-0.49999999999999994	95.39676901250371	0	0	0
112	1	1	0.0	0.0	96.26279441628814	0	0	0
113	1	1	0.0	-0.49999999999999994	97.12881982007258	0	0	0
114	1	1	0.0	0.0	97.99484522385701	0	0	0
115	1	1	0.0	-0.49999999999999994	98.86087062764145	0	0	0
116	1	1	0.0	0.0	99.72689603142588	0	0	0
117	1	1	0.0	-0.49999999999999994	100.59292143521031	0	0	0
118	1	1	0.0	0.0	101.45894683899475	0	0	0
119	1	1	0.0	-0.49999999999999994	102.32497224277918	0	0	0
120	1	1	0.0	0.0	103.19099764656362	0	0	0
121	1	1	0.0	-0.49999999999999994	104.05702305034805	0	0	0
122	1	1	0.0	0.0	104.92304845413248	0	0	0
123	1	1	0.0	-0.49999999999999994	105.78907385791692	0	0	0
124	1	1	0.0	0.0	106.65509926170135	0	0	0
125	1	1	0.0	-0.49999999999999994	107.52112466548579	0	0	0
126	1	1	0.0	0.0	108.38715006927022	0	0	0
127	1	1	0.0	-0.49999999999999994	109.25317547305465	0	0	0
128	1	1	0.0	0.0	110.11920087683909	0	0	0
129	1	1	0.0	-0.49999999999999994	110.98522628062352	0	0	0
130	1	1	0.0	0.0	111.85125168440796	0	0	0
131	1	1	0.0	-0.49999999999999994	112.71727708819239	0	0	0
132	1	1	0.0	0.0	113.58330249197682	0	0	0
133	1	1	0.0	-0.49999999999999994	114.44932789576126	0	0	0
134	1	1	0.0	0.0	115.31535329954569	0	0	0
135	1	1	0.0	-0.49999999999999994	116.18137870333013	0	0	0
136	1	1	0.0	0.0	117.04740410711456	0	0	0
137	1	1	0.0	-0.49999999999999994	117.913429510899	0	0	0
138	1	1	0.0	0.0	118.77945491468343	0	0	0
139	1	1	0.0	-0.49999999999999994	119.64548031846786	0	0	0
140	1	1	0.0	0.0	120.5115057222523	0	0	0
141	1	1	0.0	-0.49999999999999994	121.37753112603673	0	0	0
142	1	1	0.0	0.0	122.24355652982116	0	0	0
143	1	1	0.0	-0.49999999999999994	123.1095819336056	0	0	0
144	1	1	0.0	0.0	123.97560733739003	0	0	0
145	1	1	0.0	-0.49999999999999994	124.84163274117446	0	0	0
146	1	1	0.0	0.0	125.7076581449589	0	0	0
147	1	1	0.0	-0.49999999999999994	126.57368354874333	0	0	0
148	1	1	0.0	0.0	127.43970895252777	0	0	0
149	1	1	0.0	-0.49999999999999994	128.3057343563122	0	0	0
150	1	1	0.0	0.0	129.17175976009665	0	0	0
151	1	1	0.0	-0.49999999999999994	130.0377851638811	0	0	0
152	1	1	0.0	0.0	130.90381056766554	0	0	0
153	1	1	0.0	-0.49999999999999994	131.76983597145	0	0	0
154	1	1	0.0	0.0	132.63586137523444	0	0	0
155	1	1	0.0	-0.49999999999999994	133.5018867790189	0	0	0
156	1	1	0.0	0.0	134.36791218280334	0	0	0
157	1	1	0.0	-0.49999999999999994	135.23393758658779	0	0	0
158	1	1	0.0	0.0	136.09996299037223	0	0	0
159	1	1	0.0	-0.49999999999999994	136.96598839415668	0	0	0
160	1	1	0.0	0.0	137.83201379794113	0	0	0
161	1	1	0.0	-0.49999999999999994	138.69803920172558	0	0	0
162	1	1	0.0	0.0	139.56406460551003	0	0	0
163	1	1	0.0	-0.49999999999999994	140.43009000929447	0	0	0
164	1	1	0.0	0.0	141.29611541307892	0	0	0
165	1	1	0.0	-0.49999999999999994	142.16214081686337	0	0	0
166	1	1	0.0	0.0	143.02816622064782	0	0	0
167	1	1	0.0	-0.49999999999999994	143.89419162443227	0	0	0
168	1	1	0.0	0.0	144.76021702821672	0	0	0
169	1	1	0.0	-0.49999999999999994	145.62624243200116	0	0	0
170	1	1	0.0	0.0	146.4922678357856	0	0	0
171	1	1	0.0	-0.49999999999999994	147.35829323957006	0	0	0
172	1	1	0.0	0.0	148.2243186433545	0	0	0
173	1	1	0.0	-0.49999999999999994	149.09034404713896	0	0	0
174	1	1	0.0	0.0	149.9563694509234	0	0	0
175	1	1	0.0	-0.49999999999999994	150.82239485470785	0	0	0
176	1	1	0.0	0.0	151.6884202584923	0	0	0
177	1	1	0.0	-0.49999999999999994	152.55444566227675	0	0	0
178	1	1	0.0	0.0	153.4204710660612	0	0	0
179	1	1	0.0	-0.49999999999999994	154.28649646984564	0	0	0
180	1	1	0.0	0.0	155.1525218736301	0	0	0
181	1	1	0.0	-0.49999999999999994	156.01854727741454	0	0	0
182	1	1	0.0	0.0	156.884572681199	0	0	0
183	1	1	0.0	-0.49999999999999994	157.75059808498344	0	0	0
184	1	1	0.0	0.0	158.61662348876789	0	0	0
185	1	1	0.0	-0.49999999999999994	159.48264889255233	0	0	0
186	1	1	0.0	0.0	160.34867429633678	0	0	0
187	1	1	0.0	-0.49999999999999994	161.21469970012123	0	0	0
188	1	1	0.0	0.0	162.08072510390568	0	0	0
189	1	1	0.0	-0.49999999999999994	162.94675050769013	0	0	0
190	1	1	0.0	0.0	163.81277591147457	0	0	0
191	1	1	0.0	-0.49999999999999994	164.67880131525902	0	0	0
192	1	1	0.0	0.0	165.54482671904347	0	0	0
193	1	1	0.0	-0.49999999999999994	166.41085212282792	0	0	0
194	1	1	0.0	0.0	167.27687752661237	0	0	0
195	1	1	0.0	-0.49999999999999994	168.14290293039682	0	0	0
196	1	1	0.0	0.0	169.00892833418126	0	0	0
197	1	1	0.0	-0.49999999999999994	169.8749537379657	0	0	0
198	1	1	0.0	0.0	170.74097914175016	0	0	0
199	1	1	0.0	-0.49999999999999994	171.6070045455346	0	0	0
200	1	1	0.0	0.0	172.47302994931906	0	0	0
201	1	1	0.0	-0.49999999999999994	173.3390553531035	0	0	0
202	1	1	0.0	0.0	174.20508075688795	0	0	0
203	1	1	0.0	-0.49999999999999994	175.0711061606724	0	0	0
204	1	1	0.0	0.0	175.93713156445685	0	0	0
205	1	1	0.0	-0.49999999999999994	176.8031569682413	0	0	0
206	1	1	0.0	0.0	177.66918237202574	0	0	0
207	1	1	0.0	-0.49999999999999994	178.5352077758102	0	0	0
208	1	1	0.0	0.0	179.40123317959464	0	0	0
209	1	1	0.0	-0.49999999999999994	180.2672585833791	0	0	0
210	1	1	0.0	0.0	181.13328398716354	0	0	0
211	1	1	0.0	-0.49999999999999994	181.99930939094799	0	0	0
212	1	1	0.0	0.0	182.86533479473243	0	0	0
213	1	1	0.0	-0.49999999999999994	183.73136019851688	0	0	0
214	1	1	0.0	0.0	184.59738560230133	0	0	0
215	1	1	0.0	-0.49999999999999994	185.46341100608578	0	0	0
216	1	1	0.0	0.0	186.32943640987023	0	0	0
217	1	1	0.0	-0.49999999999999994	187.19546181365467	0	0	0
218	1	1	0.0	0.0	188.06148721743912	0	0	0
219	1	1	0.0	-0.49999999999999994	188.92751262122357	0	0	0
220	1	1	0.0	0.0	189.79353802500802	0	0	0
221	1	1	0.0	-0.49999999999999994	190.65956342879247	0	0	0
222	1	1	0.0	0.0	191.52558883257691	0	0	0
223	1	1	0.0	-0.49999999999999994	192.39161423636136	0	0	0
224	1	1	0.0	0.0	193.2576396401458	0	0	0
225	1	1	0.0	-0.49999999999999994	194.12366504393026	0	0	0
226	1	1	0.0	0.0	194.9896904477147	0	0	0
227	1	1	0.0	-0.49999999999999994	195.85571585149916	0	0	0
228	1	1	0.0	0.0	196.7217412552836	0	0	0
229	1	1	0.0	-0.49999999999999994	197.58776665906805	0	0	0
230	1	1	0.0	0.0	198.4537920628525	0	0	0
231	1	1	0.0	-0.49999999999999994	199.31981746663695	0	0	0
232	1	1	0.0	0.0	200.1858428704214	0	0	0
233	1	1	0.0	-0.49999999999999994	201.05186827420584	0	0	0
234	1	1	0.0	0.0	201.9178936779903	0	0	0
235	1	1	0.0	-0.49999999999999994	202.78391908177474	0	0	0
236	1	1	0.0	0.0	203.6499444855592	0	0	0
237	1	1	0.0	-0.49999999999999994	204.51596988934364	0	0	0
238	1	1	0.0	0.0	205.38199529312809	0	0	0
239	1	1	0.0	-0.49999999999999994	206.24802069691253	0	0	0
240	1	1	0.0	0.0	207.11404610069698	0	0	0
241	1	1	0.0	-0.49999999999999994	207.98007150448143	0	0	0
242	1	1	0.0	0.0	208.84609690826588	0	0	0
243	1	1	0.0	-0.49999999999999994	209.71212231205033	0	0	0
244	1	1	0.0	0.0	210.57814771583477	0	0	0
245	1	1	0.0	-0.49999999999999994	211.44417311961922	0	0	0
246	1	1	0.0	0.0	212.31019852340367	0	0	0
247	1	1	0.0	-0.49999999999999994	213.17622392718812	0	0	0
248	1	1	0.0	0.0	214.04224933097257	0	0	0
249	1	1	0.0	-0.49999999999999994	214.90827473475701	0	0	0
250	1	1	0.0	0.0	215.77430013854146	0	0	0
251	1	1	0.0	-0.49999999999999994	216.6403255423259	0	0	0
252	1	1	0.0	0.0	217.50635094611036	0	0	0
253	1	1	0.0	-0.49999999999999994	218.3723763498948	0	0	0
254	1	1	0.0	0.0	219.23840175367926	0	0	0
255	1	1	0.0	-0.49999999999999994	220.1044271574637	0	0	0
256	1	1	0.0	0.0	220.97045256124815	0	0	0
257	1	1	0.0	-0.49999999999999994	221.8364779650326	0	0	0
258	1	1	0.0	0.0	222.70250336881705	0	0	0
259	1	1	0.0	-0.49999999999999994	223.5685287726015	0	0	0
260	1	1	0.0	0.0	224.43455417638594	0	0	0
261	1	1	0.0	-0.49999999999999994	225.3005795801704	0	0	0
262	1	1	0.0	0.0	226.16660498395484	0	0	0
263	1	1	0.0	-0.49999999999999994	227.0326303877393	0	0	0
264	1	1	0.0	0.0	227.89865579152374	0	0	0
265	1	1	0.0	-0.49999999999999994	228.76468119530819	0	0	0
266	1	1	0.0	0.0	229.63070659909263	0	0	0
267	1	1	0.0	-0.49999999999999994	230.49673200287708	0	0	0
268	1	1	-0.8611931689093977	-0.6708814537048899	230.97542381877068	0	0	0
269	1	1	-1.7223863378187887	-1.0582150415957345	231.3045423650658	0	0	0
270	1	1	-2.5835795067281797	-0.9668568135929861	231.8045423650658	0	0	0
271	1	1	-3.4447726756375707	-1.3541904014838306	232.13366091136092	0	0	0
272	1	1	-4.305965844546962	-1.2628321734810823	232.63366091136092	0	0	0
273	1	1	-5.167159013456352	-1.6501657613719267	232.96277945765604	0	0	0
274	1	1	-6.028352182365743	-1.5588075333691784	233.46277945765604	0	0	0
275	1	1	-6.8895453512751335	-1.9461411212600228	233.79189800395116	0	0	0
276	1	1	-7.750738520184524	-1.8547828932572745	234.29189800395116	0	0	0
277	1	1	-8.611931689093915	-2.242116481148119	234.62101655024628	0	0	0
278	1	1	-9.473124858003306	-2.1507582531453706	235.12101655024628	0	0	0
279	1	1	-10.334318026912698	-2.538091841036215	235.4501350965414	0	0	0
280	1	1	-11.195511195822089	-2.4467336130334667	235.9501350965414	0	0	0
281	1	1	-12.05670436473148	-2.834067200924311	236.27925364283652	0	0	0
282	1	1	-12.917897533640872	-2.742708972921563	236.77925364283652	0	0	0
283	1	1	-13.779090702550263	-3.130042560812407	237.10837218913164	0	0	0
284	1	1	-14.640283871459655	-3.038684332809659	237.60837218913164	0	0	0
285	1	1	-15.501477040369046	-3.4260179207005033	237.93749073542676	0	0	0
286	1	1	-16.362670209278438	-3.334659692697755	238.43749073542676	0	0	0
287	1	1	-17.22386337818783	-3.7219932805885994	238.76660928172188	0	0	0
288	1	1	-18.08505654709722	-3.630635052585851	239.26660928172188	0	0	0
289	1	1	-18.946249716006612	-4.017968640476695	239.595727828017	0	0	0
290	1	1	-19.807442884916004	-3.926610412473947	240.095727828017	0	0	0
291	1	1	-20.668636053825395	-4.313944000364792	240.42484637431212	0	0	0
292	1	1	-21.529829222734786	-4.222585772362043	240.92484637431212	0	0	0
293	1	1	-22.391022391644178	-4.609919360252888	241.25396492060725	0	0	0
294	1	1	-23.25221556055357	-4.518561132250139	241.75396492060725	0	0	0
295	1	1	-24.11340872946296	-4.905894720140983	242.08308346690237	0	0	0
296	1	1	-24.974601898372352	-4.8145364921382345	242.58308346690237	0	0	0
297	1	1	-25.835795067281744	-5.201870080029079	242.9122020131975	0	0	0
298	1	1	-26.696988236191135	-5.11051185202633	243.4122020131975	0	0	0
299	1	1	-27.558181405100527	-5.497845439917175	243.7413205594926	0	0	0
300	1	1	-28.419374574009918	-5.406487211914426	244.2413205594926	0	0	0
301	1	1	-29.28056774291931	-5.79382079980527	244.57043910578773	0	0	0
302	1	1	-30.1417609118287	-5.7024625718025215	245.07043910578773	0	0	0
303	1	1	-31.002954080738093	-6.089796159693366	245.39955765208285	0	0	0
304	1	1	-31.864147249647484	-5.998437931690617	245.89955765208285	0	0	0
305	1	1	-32.725340418556875	-6.3857715195814615	246.22867619837797	0	0	0
306	1	1	-33.58653358746626	-6.294413291578713	246.72867619837797	0	0	0
307	1	1	-34.44772675637565	-6.681746879469557	247.0577947446731	0	0	0
308	1	1	-35.30891992528504	-6.590388651466808	247.5577947446731	0	0	0
309	1	1	-36.17011309419443	-6.977722239357653	247.8869132909682	0	0	0
310	1	1	-37.031306263103815	-6.886364011354904	248.3869132909682	0	0	0
311	1	1	-37.8924994320132	-7.273697599245748	248.71603183726333	0	0	0
312	1	1	-38.75369260092259	-7.182339371243	249.21603183726333	0	0	0
313	1	1	-39.61488576983198	-7.569672959133844	249.54515038355845	0	0	0
314	1	1	-40.47607893874137	-7.478314731131095	250.04515038355845	0	0	0
315	1	1	-41.337272107650755	-7.86564831902194	250.37426892985357	0	0	0
316	1	1	-42.19846527656014	-7.774290091019191	250.87426892985357	0	0	0
317	1	1	-43.05965844546953	-8.161623678910036	251.2033874761487	0	0	0
318	1	1	-43.92085161437892	-8.070265450907288	251.7033874761487	0	0	0
319	1	1	-44.782044783288306	-8.457599038798133	252.0325060224438	0	0	0
320	1	1	-45.643237952197694	-8.366240810795384	252.5325060224438	0	0	0
321	1	1	-46.50443112110708	-8.75357439868623	252.86162456873893	0	0	0
322	1	1	-47.36562429001647	-8.66221617068348	253.36162456873893	0	0	0
323	1	1	-48.22681745892586	-9.049549758574326	253.69074311503405	0	0	0
324	1	1	-49.088010627835246	-8.958191530571577	254.19074311503405	0	0	0
325	1	1	-49.949203796744634	-9.345525118462422	254.51986166132917	0	0	0
326	1	1	-50.81039696565402	-9.254166890459674	255.01986166132917	0	0	0
327	1	1	-51.67159013456341	-9.641500478350519	255.3489802076243	0	0	0
328	1	1	-52.5327833034728	-9.55014225034777	255.8489802076243	0	0	0
329	1	1	-53.393976472382185	-9.937475838238615	256.1780987539194	0	0	0
330	1	1	-54.25516964129157	-9.846117610235867	256.6780987539194	0	0	0
331	1	1	-55.11636281020096	-10.233451198126712	257.0072173002145	0	0	0
332	1	1	-55.97755597911035	-10.142092970123963	257.5072173002145	0	0	0
333	1	1	-56.83874914801974	-10.529426558014809	257.8363358465096	0	0	0
334	1	1	-57.699942316929125	-10.43806833001206	258.3363358465096	0	0	0
335	1	1	-58.56113548583851	-10.825401917902905	258.6654543928047	0	0	0
336	1	1	-59.4223286547479	-10.734043689900156	259.1654543928047	0	0	0
337	1	1	-60.28352182365729	-11.121377277791002	259.4945729390998	0	0	0
338	1	1	-61.144714992566676	-11.030019049788253	259.9945729390998	0	0	0
339	1	1	-62.005908161476064	-11.417352637679098	260.3236914853949	0	0	0
340	1	1	-62.86710133038545	-11.32599440967635	260.8236914853949	0	0	0
341	1	1	-63.72829449929484	-11.713327997567195	261.15281003168997	0	0	0
342	1	1	-64.58948766820423	-11.621969769564446	261.65281003168997	0	0	0
343	1	1	-65.45068083711362	-12.009303357455291	261.98192857798506	0	0	0
344	1	1	-66.31187400602302	-11.917945129452542	262.48192857798506	0	0	0
345	1	1	-67.17306717493241	-12.305278717343388	262.81104712428015	0	0	0
346	1	1	-68.03426034384181	-12.213920489340639	263.31104712428015	0	0	0
347	1	1	-68.8954535127512	-12.601254077231484	263.64016567057524	0	0	0
348	1	1	-69.7566466816606	-12.509895849228736	264.14016567057524	0	0	0
349	1	1	-70.61783985057	-12.89722943711958	264.46928421687034	0	0	0
350	1	1	-71.47903301947939	-12.805871209116832	264.96928421687034	0	0	0
351	1	1	-72.34022618838878	-13.193204797007677	265.2984027631654	0	0	0
352	1	1	-73.20141935729818	-13.101846569004929	265.7984027631654	0	0	0
353	1	1	-74.06261252620757	-13.489180156895774	266.1275213094605	0	0	0
354	1	1	-74.92380569511697	-13.397821928893025	266.6275213094605	0	0	0
355	1	1	-75.78499886402636	-13.78515551678387	266.9566398557556	0	0	0
356	1	1	-76.64619203293576	-13.693797288781122	267.4566398557556	0	0	0
357	1	1	-77.50738520184515	-14.081130876671967	267.7857584020507	0	0	0
358	1	1	-78.36857837075455	-13.989772648669218	268.2857584020507	0	0	0
359	1	1	-79.22977153966394	-14.377106236560063	268.6148769483458	0	0	0
360	1	1	-80.09096470857334	-14.285748008557315	269.1148769483458	0	0	0
361	1	1	-80.95215787748273	-14.67308159644816	269.4439954946409	0	0	0
362	1	1	-81.81335104639213	-14.581723368445411	269.9439954946409	0	0	0
363	1	1	-82.67454421530152	-14.969056956336257	270.273114040936	0	0	0
364	1	1	-83.53573738421092	-14.877698728333508	270.773114040936	0	0	0
365	1	1	-84.39693055312031	-15.265032316224353	271.1022325872311	0	0	0
366	1	1	-85.25812372202971	-15.173674088221604	271.6022325872311	0	0	0
367	1	1	-86.1193168909391	-15.56100767611245	271.93135113352616	0	0	0
368	1	1	-86.9805100598485	-15.4696494481097	272.43135113352616	0	0	0
369	1	1	-87.8417032287579	-15.856983036000546	272.76046967982126	0	0	0
370	1	1	-88.70289639766729	-15.765624807997797	273.26046967982126	0	0	0
371	1	1	-89.56408956657668	-16.152958395888643	273.58958822611635	0	0	0
372	1	1	-90.42528273548608	-16.061600167885896	274.08958822611635	0	0	0
373	1	1	-91.28647590439547	-16.44893375577674	274.41870677241144	0	0	0
374	1	1	-92.14766907330487	-16.357575527773992	274.91870677241144	0	0	0
375	1	1	-93.00886224221426	-16.744909115664836	275.24782531870653	0	0	0
376	1	1	-93.87005541112366	-16.65355088766209	275.74782531870653	0	0	0
377	1	1	-94.73124858003305	-17.040884475552932	276.0769438650016	0	0	0
378	1	1	-95.59244174894245	-16.949526247550185	276.5769438650016	0	0	0
379	1	1	-96.45363491785184	-17.33685983544103	276.9060624112967	0	0	0
380	1	1	-97.31482808676124	-17.245501607438282	277.4060624112967	0	0	0
381	1	1	-98.17602125567063	-17.632835195329125	277.7351809575918	0	0	0
382	1	1	-99.03721442458003	-17.54147696732638	278.2351809575918	0	0	0
383	1	1	-99.89840759348942	-17.928810555217222	278.5642995038869	0	0	0
384	1	1	-100.75960076239882	-17.837452327214475	279.0642995038869	0	0	0
385	1	1	-101.62079393130821	-18.22478591510532	279.393418050182	0	0	0
386	1	1	-102.48198710021761	-18.13342768710257	279.893418050182	0	0	0
387	1	1	-103.343180269127	-18.520761274993415	280.2225365964771	0	0	0
388	1	1	-104.2043734380364	-18.429403046990668	280.7225365964771	0	0	0
389	1	1	-105.0655666069458	-18.81673663488151	281.0516551427722	0	0	0
390	1	1	-105.92675977585519	-18.725378406878765	281.5516551427722	0	0	0
391	1	1	-106.78795294476458	-19.112711994769608	281.88077368906727	0	0	0
392	1	1	-107.64914611367398	-19.02135376676686	282.38077368906727	0	0	0
393	1	1	-108.51033928258337	-19.408687354657705	282.70989223536236	0	0	0
394	1	1	-109.37153245149277	-19.317329126654958	283.20989223536236	0	0	0
395	1	1	-110.23272562040216	-19.7046627145458	283.53901078165745	0	0	0
396	1	1	-111.09391878931156	-19.613304486543054	284.03901078165745	0	0	0
397	1	1	-111.95511195822095	-20.000638074433898	284.36812932795254	0	0	0
398	1	1	-112.81630512713035	-19.90927984643115	284.86812932795254	0	0	0
399	1	1	-113.67749829603974	-20.296613434321994	285.19724787424764	0	0	0
400	1	1	-114.53869146494914	-20.205255206319247	285.69724787424764	0	0	0
401	1	1	-115.39988463385853	-20.59258879421009	286.02636642054273	0	0	0
402	1	1	-116.26107780276793	-20.501230566207344	286.52636642054273	0	0	0
403	1	1	-117.12227097167732	-20.888564154098187	286.8554849668378	0	0	0
404	1	1	-117.98346414058672	-20.79720592609544	287.3554849668378	0	0	0
405	1	1	-118.84465730949611	-21.184539513986284	287.6846035131329	0	0	0
406	1	1	-119.70585047840551	-21.093181285983537	288.1846035131329	0	0	0
407	1	1	-120.5670436473149	-21.48051487387438	288.513722059428	0	0	0
408	1	1	-121.4282368162243	-21.389156645871633	289.013722059428	0	0	0
409	1	1	-122.2894299851337	-21.776490233762477	289.3428406057231	0	0	0
410	1	1	-123.15062315404309	-21.68513200575973	289.8428406057231	0	0	0
411	1	1	-124.01181632295248	-22.072465593650573	290.1719591520182	0	0	0
412	1	1	-124.87300949186188	-21.981107365647826	290.6719591520182	0	0	0
413	1	1	-125.73420266077127	-22.36844095353867	291.0010776983133	0	0	0
414	1	1	-126.59539582968067	-22.277082725535923	291.5010776983133	0	0	0
415	1	1	-127.45658899859006	-22.664416313426766	291.8301962446084	0	0	0
416	1	1	-128.31778216749944	-22.57305808542402	292.3301962446084	0	0	0
417	1	1	-129.17897533640883	-22.960391673314863	292.65931479090347	0	0	0
418	1	1	-130.0401685053182	-22.869033445312116	293.15931479090347	0	0	0
419	1	1	-130.9013616742276	-23.25636703320296	293.48843333719856	0	0	0
420	1	1	-131.76255484313697	-23.165008805200213	293.98843333719856	0	0	0
421	1	1	-132.62374801204635	-23.552342393091056	294.31755188349365	0	0	0
422	1	1	-133.48494118095573	-23.46098416508831	294.81755188349365	0	0	0
423	1	1	-134.3461343498651	-23.848317752979153	295.14667042978874	0	0	0
424	1	1	-135.2073275187745	-23.756959524976406	295.64667042978874	0	0	0
425	1	1	-136.06852068768387	-24.14429311286725	295.97578897608383	0	0	0
426	1	1	-136.92971385659325	-24.052934884864502	296.47578897608383	0	0	0
427	1	1	-137.79090702550263	-24.440268472755346	296.8049075223789	0	0	0
428	1	1	-138.65210019441201	-24.3489102447526	297.3049075223789	0	0	0
429	1	1	-139.5132933633214	-24.736243832643442	297.634026068674	0	0	0
430	1	1	-140.37448653223078	-24.644885604640695	298.134026068674	0	0	0
431	1	1	-141.23567970114016	-25.03221919253154	298.4631446149691	0	0	0
432	1	1	-142.09687287004954	-24.94086096452879	298.9631446149691	0	0	0
433	1	1	-142.95806603895892	-25.328194552419635	299.2922631612642	0	0	0
434	1	1	-143.8192592078683	-25.23683632441689	299.7922631612642	0	0	0
435	1	1	-144.68045237677768	-25.624169912307732	300.1213817075593	0	0	0
436	1	1	-145.54164554568706	-25.532811684304985	300.6213817075593	0	0	0
437	1	1	-146.40283871459644	-25.92014527219583	300.9505002538544	0	0	0
438	1	1	-147.26403188350582	-25.82878704419308	301.4505002538544	0	0	0
439	1	1	-148.1252250524152	-26.216120632083925	301.7796188001495	0	0	0
440	1	1	-148.98641822132458	-26.124762404081178	302.2796188001495	0	0	0
441	1	1	-149.84761139023396	-26.51209599197202	302.60873734644457	0	0	0
442	1	1	-150.70880455914335	-26.420737763969274	303.10873734644457	0	0	0
443	1	1	-151.56999772805273	-26.808071351860118	303.43785589273966	0	0	0
444	1	1	-152.4311908969621	-26.71671312385737	303.93785589273966	0	0	0
445	1	1	-153.2923840658715	-27.104046711748214	304.26697443903475	0	0	0
446	1	1	-154.15357723478087	-27.012688483745467	304.76697443903475	0	0	0
447	1	1	-155.01477040369025	-27.40002207163631	305.09609298532985	0	0	0
448	1	1	-155.87596357259963	-27.308663843633564	305.59609298532985	0	0	0
449	1	1	-156.737156741509	-27.695997431524408	305.92521153162494	0	0	0
450	1	1	-157.5983499104184	-27.60463920352166	306.42521153162494	0	0	0
451	1	1	-158.45954307932777	-27.991972791412504	306.75433007792003	0	0	0
452	1	1	-159.32073624823715	-27.900614563409757	307.25433007792003	0	0	0
453	1	1	-160.18192941714653	-28.2879481513006	307.5834486242151	0	0	0
454	1	1	-161.04312258605592	-28.196589923297854	308.0834486242151	0	0	0
455	1	1	-161.9043157549653	-28.583923511188697	308.4125671705102	0	0	0
456	1	1	-162.76550892387468	-28.49256528318595	308.9125671705102	0	0	0
457	1	1	-163.62670209278406	-28.879898871076794	309.2416857168053	0	0	0
458	1	1	-164.48789526169344	-28.788540643074047	309.7416857168053	0	0	0
459	1	1	-165.34908843060282	-29.17587423096489	310.0708042631004	0	0	0
460	1	1	-166.2102815995122	-29.084516002962143	310.5708042631004	0	0	0
461	1	1	-167.07147476842158	-29.471849590852987	310.8999228093955	0	0	0
462	1	1	-167.93266793733096	-29.38049136285024	311.3999228093955	0	0	0
463	1	1	-168.79386110624034	-29.767824950741083	311.7290413556906	0	0	0
464	1	1	-169.65505427514972	-29.676466722738336	312.2290413556906	0	0	0
465	1	1	-170.5162474440591	-30.06380031062918	312.5581599019857	0	0	0
466	1	1	-171.37744061296848	-29.972442082626433	313.0581599019857	0	0	0
467	1	1	-172.23863378187787	-30.359775670517276	313.38727844828077	0	0	0
468	1	1	-173.09982695078725	-30.26841744251453	313.88727844828077	0	0	0
469	1	1	-173.96102011969663	-30.655751030405373	314.21639699457586	0	0	0
470	1	1	-174.822213288606	-30.564392802402626	314.71639699457586	0	0	0
471	1	1	-175.6834064575154	-30.95172639029347	315.04551554087095	0	0	0
472	1	1	-176.54459962642477	-30.860368162290722	315.54551554087095	0	0	0
473	1	1	-177.40579279533415	-31.247701750181566	315.87463408716604	0	0	0
474	1	1	-178.26698596424353	-31.15634352217882	316.37463408716604	0	0	0
475	1	1	-179.1281791331529	-31.543677110069662	316.70375263346114	0	0	0
476	1	1	-179.9893723020623	-31.452318882066916	317.20375263346114	0	0	0
477	1	1	-180.85056547097167	-31.83965246995776	317.5328711797562	0	0	0
478	1	1	-181.71175863988105	-31.748294241955012	318.0328711797562	0	0	0
479	1	1	-182.57295180879044	-32.13562782984586	318.3619897260513	0	0	0
480	1	1	-183.43414497769982	-32.04426960184311	318.8619897260513	0	0	0
481	1	1	-184.2953381466092	-32.431603189733956	319.1911082723464	0	0	0
482	1	1	-185.15653131551858	-32.34024496173121	319.6911082723464	0	0	0
483	1	1	-186.01772448442796	-32.72757854962205	320.0202268186415	0	0	0
484	1	1	-186.87891765333734	-32.636220321619305	320.5202268186415	0	0	0
485	1	1	-187.74011082224672	-33.02355390951015	320.8493453649366	0	0	0
486	1	1	-188.6013039911561	-32.9321956815074	321.3493453649366	0	0	0
487	1	1	-189.46249716006548	-33.319529269398245	321.6784639112317	0	0	0
488	1	1	-190.32369032897486	-33.2281710413955	322.1784639112317	0	0	0
489	1	1	-191.18488349788424	-33.61550462928634	322.5075824575268	0	0	0
490	1	1	-192.04607666679362	-33.524146401283595	323.0075824575268	0	0	0
491	1	1	-192.907269835703	-33.91147998917444	323.3367010038219	0	0	0
492	1	1	-193.76846300461239	-33.82012176117169	323.8367010038219	0	0	0
493	1	1	-194.62965617352177	-34.207455349062535	324.16581955011696	0	0	0
494	1	1	-195.49084934243115	-34.11609712105979	324.66581955011696	0	0	0
495	1	1	-196.35204251134053	-34.50343070895063	324.99493809641206	0	0	0
496	1	1	-197.2132356802499	-34.412072480947884	325.49493809641206	0	0	0
497	1	1	-198.0744288491593	-34.79940606883873	325.82405664270715	0	0	0
498	1	1	-198.93562201806867	-34.70804784083598	326.32405664270715	0	0	0
499	1	1	-199.79681518697805	-35.095381428726824	326.65317518900224	0	0	0
500	1	1	-200.65800835588743	-35.00402320072408	327.15317518900224	0	0	0
501	1	1	-201.5192015247968	-35.39135678861492	327.48229373529733	0	0	0
502	1	1	-202.3803946937062	-35.299998560612174	327.98229373529733	0	0	0
503	1	1	-203.24158786261557	-35.68733214850302	328.3114122815924	0	0	0