bb666nuc1bl333bn3d30tot1000V2

1000 atoms
999 bonds
999 angles

1 atom types
1 bond types
1 angle types

-1000 1000 xlo xhi
-1000 1000 ylo yhi
-1000 1000 zlo zhi

Masses

1 1

Atoms

1	1	1	0.0	0.0	0.0	0	0	0
2	1	1	0.0	0.0	1.0	0	0	0
3	1	1	0.0	-0.49999999999999994	1.8660254037844388	0	0	0
4	1	1	0.0	0.0	2.7320508075688776	0	0	0
5	1	1	0.0	-0.49999999999999994	3.5980762113533165	0	0	0
6	1	1	0.0	0.0	4.464101615137755	0	0	0
7	1	1	0.0	-0.49999999999999994	5.330127018922194	0	0	0
8	1	1	0.0	0.0	6.196152422706632	0	0	0
9	1	1	0.0	-0.49999999999999994	7.06217782649107	0	0	0
10	1	1	0.0	0.0	7.928203230275509	0	0	0
11	1	1	0.0	-0.49999999999999994	8.794228634059948	0	0	0
12	1	1	0.0	0.0	9.660254037844387	0	0	0
13	1	1	0.0	-0.49999999999999994	10.526279441628827	0	0	0
14	1	1	0.0	0.0	11.392304845413266	0	0	0
15	1	1	0.0	-0.49999999999999994	12.258330249197705	0	0	0
16	1	1	0.0	0.0	13.124355652982144	0	0	0
17	1	1	0.0	-0.49999999999999994	13.990381056766584	0	0	0
18	1	1	0.0	0.0	14.856406460551023	0	0	0
19	1	1	0.0	-0.49999999999999994	15.722431864335462	0	0	0
20	1	1	0.0	0.0	16.5884572681199	0	0	0
21	1	1	0.0	-0.49999999999999994	17.454482671904337	0	0	0
22	1	1	0.0	0.0	18.320508075688775	0	0	0
23	1	1	0.0	-0.49999999999999994	19.186533479473212	0	0	0
24	1	1	0.0	0.0	20.05255888325765	0	0	0
25	1	1	0.0	-0.49999999999999994	20.918584287042087	0	0	0
26	1	1	0.0	0.0	21.784609690826525	0	0	0
27	1	1	0.0	-0.49999999999999994	22.650635094610962	0	0	0
28	1	1	0.0	0.0	23.5166604983954	0	0	0
29	1	1	0.0	-0.49999999999999994	24.382685902179837	0	0	0
30	1	1	0.0	0.0	25.248711305964274	0	0	0
31	1	1	0.0	-0.49999999999999994	26.114736709748712	0	0	0
32	1	1	0.0	0.0	26.98076211353315	0	0	0
33	1	1	0.0	-0.49999999999999994	27.846787517317587	0	0	0
34	1	1	0.0	0.0	28.712812921102024	0	0	0
35	1	1	0.0	-0.49999999999999994	29.578838324886462	0	0	0
36	1	1	0.0	0.0	30.4448637286709	0	0	0
37	1	1	0.0	-0.49999999999999994	31.310889132455337	0	0	0
38	1	1	0.0	0.0	32.17691453623978	0	0	0
39	1	1	0.0	-0.49999999999999994	33.04293994002422	0	0	0
40	1	1	0.0	0.0	33.90896534380866	0	0	0
41	1	1	0.0	-0.49999999999999994	34.7749907475931	0	0	0
42	1	1	0.0	0.0	35.64101615137754	0	0	0
43	1	1	0.0	-0.49999999999999994	36.50704155516198	0	0	0
44	1	1	0.0	0.0	37.373066958946424	0	0	0
45	1	1	0.0	-0.49999999999999994	38.239092362730865	0	0	0
46	1	1	0.0	0.0	39.105117766515306	0	0	0
47	1	1	0.0	-0.49999999999999994	39.97114317029975	0	0	0
48	1	1	0.0	0.0	40.83716857408419	0	0	0
49	1	1	0.0	-0.49999999999999994	41.70319397786863	0	0	0
50	1	1	0.0	0.0	42.56921938165307	0	0	0
51	1	1	0.0	-0.49999999999999994	43.43524478543751	0	0	0
52	1	1	0.0	0.0	44.30127018922195	0	0	0
53	1	1	0.0	-0.49999999999999994	45.16729559300639	0	0	0
54	1	1	0.0	0.0	46.033320996790835	0	0	0
55	1	1	0.0	-0.49999999999999994	46.899346400575276	0	0	0
56	1	1	0.0	0.0	47.76537180435972	0	0	0
57	1	1	0.0	-0.49999999999999994	48.63139720814416	0	0	0
58	1	1	0.0	0.0	49.4974226119286	0	0	0
59	1	1	0.0	-0.49999999999999994	50.36344801571304	0	0	0
60	1	1	0.0	0.0	51.22947341949748	0	0	0
61	1	1	0.0	-0.49999999999999994	52.09549882328192	0	0	0
62	1	1	0.0	0.0	52.96152422706636	0	0	0
63	1	1	0.0	-0.49999999999999994	53.827549630850804	0	0	0
64	1	1	0.0	0.0	54.693575034635245	0	0	0
65	1	1	0.0	-0.49999999999999994	55.559600438419686	0	0	0
66	1	1	0.0	0.0	56.42562584220413	0	0	0
67	1	1	0.0	-0.49999999999999994	57.29165124598857	0	0	0
68	1	1	0.0	0.0	58.15767664977301	0	0	0
69	1	1	0.0	-0.49999999999999994	59.02370205355745	0	0	0
70	1	1	0.0	0.0	59.88972745734189	0	0	0
71	1	1	0.0	-0.49999999999999994	60.75575286112633	0	0	0
72	1	1	0.0	0.0	61.62177826491077	0	0	0
73	1	1	0.0	-0.49999999999999994	62.487803668695214	0	0	0
74	1	1	0.0	0.0	63.353829072479655	0	0	0
75	1	1	0.0	-0.49999999999999994	64.21985447626409	0	0	0
76	1	1	0.0	0.0	65.08587988004852	0	0	0
77	1	1	0.0	-0.49999999999999994	65.95190528383296	0	0	0
78	1	1	0.0	0.0	66.81793068761739	0	0	0
79	1	1	0.0	-0.49999999999999994	67.68395609140183	0	0	0
80	1	1	0.0	0.0	68.54998149518626	0	0	0
81	1	1	0.0	-0.49999999999999994	69.41600689897069	0	0	0
82	1	1	0.0	0.0	70.28203230275513	0	0	0
83	1	1	0.0	-0.49999999999999994	71.14805770653956	0	0	0
84	1	1	0.0	0.0	72.014083110324	0	0	0
85	1	1	0.0	-0.49999999999999994	72.88010851410843	0	0	0
86	1	1	0.0	0.0	73.74613391789286	0	0	0
87	1	1	0.0	-0.49999999999999994	74.6121593216773	0	0	0
88	1	1	0.0	0.0	75.47818472546173	0	0	0
89	1	1	0.0	-0.49999999999999994	76.34421012924616	0	0	0
90	1	1	0.0	0.0	77.2102355330306	0	0	0
91	1	1	0.0	-0.49999999999999994	78.07626093681503	0	0	0
92	1	1	0.0	0.0	78.94228634059947	0	0	0
93	1	1	0.0	-0.49999999999999994	79.8083117443839	0	0	0
94	1	1	0.0	0.0	80.67433714816833	0	0	0
95	1	1	0.0	-0.49999999999999994	81.54036255195277	0	0	0
96	1	1	0.0	0.0	82.4063879557372	0	0	0
97	1	1	0.0	-0.49999999999999994	83.27241335952164	0	0	0
98	1	1	0.0	0.0	84.13843876330607	0	0	0
99	1	1	0.0	-0.49999999999999994	85.0044641670905	0	0	0
100	1	1	0.0	0.0	85.87048957087494	0	0	0
101	1	1	0.0	-0.49999999999999994	86.73651497465937	0	0	0
102	1	1	0.0	0.0	87.6025403784438	0	0	0
103	1	1	0.0	-0.49999999999999994	88.46856578222824	0	0	0
104	1	1	0.0	0.0	89.33459118601267	0	0	0
105	1	1	0.0	-0.49999999999999994	90.20061658979711	0	0	0
106	1	1	0.0	0.0	91.06664199358154	0	0	0
107	1	1	0.0	-0.49999999999999994	91.93266739736598	0	0	0
108	1	1	0.0	0.0	92.79869280115041	0	0	0
109	1	1	0.0	-0.49999999999999994	93.66471820493484	0	0	0
110	1	1	0.0	0.0	94.53074360871928	0	0	0
111	1	1	0.0	-0.49999999999999994	95.39676901250371	0	0	0
112	1	1	0.0	0.0	96.26279441628814	0	0	0
113	1	1	0.0	-0.49999999999999994	97.12881982007258	0	0	0
114	1	1	0.0	0.0	97.99484522385701	0	0	0
115	1	1	0.0	-0.49999999999999994	98.86087062764145	0	0	0
116	1	1	0.0	0.0	99.72689603142588	0	0	0
117	1	1	0.0	-0.49999999999999994	100.59292143521031	0	0	0
118	1	1	0.0	0.0	101.45894683899475	0	0	0
119	1	1	0.0	-0.49999999999999994	102.32497224277918	0	0	0
120	1	1	0.0	0.0	103.19099764656362	0	0	0
121	1	1	0.0	-0.49999999999999994	104.05702305034805	0	0	0
122	1	1	0.0	0.0	104.92304845413248	0	0	0
123	1	1	0.0	-0.49999999999999994	105.78907385791692	0	0	0
124	1	1	0.0	0.0	106.65509926170135	0	0	0
125	1	1	0.0	-0.49999999999999994	107.52112466548579	0	0	0
126	1	1	0.0	0.0	108.38715006927022	0	0	0
127	1	1	0.0	-0.49999999999999994	109.25317547305465	0	0	0
128	1	1	0.0	0.0	110.11920087683909	0	0	0
129	1	1	0.0	-0.49999999999999994	110.98522628062352	0	0	0
130	1	1	0.0	0.0	111.85125168440796	0	0	0
131	1	1	0.0	-0.49999999999999994	112.71727708819239	0	0	0
132	1	1	0.0	0.0	113.58330249197682	0	0	0
133	1	1	0.0	-0.49999999999999994	114.44932789576126	0	0	0
134	1	1	0.0	0.0	115.31535329954569	0	0	0
135	1	1	0.0	-0.49999999999999994	116.18137870333013	0	0	0
136	1	1	0.0	0.0	117.04740410711456	0	0	0
137	1	1	0.0	-0.49999999999999994	117.913429510899	0	0	0
138	1	1	0.0	0.0	118.77945491468343	0	0	0
139	1	1	0.0	-0.49999999999999994	119.64548031846786	0	0	0
140	1	1	0.0	0.0	120.5115057222523	0	0	0
141	1	1	0.0	-0.49999999999999994	121.37753112603673	0	0	0
142	1	1	0.0	0.0	122.24355652982116	0	0	0
143	1	1	0.0	-0.49999999999999994	123.1095819336056	0	0	0
144	1	1	0.0	0.0	123.97560733739003	0	0	0
145	1	1	0.0	-0.49999999999999994	124.84163274117446	0	0	0
146	1	1	0.0	0.0	125.7076581449589	0	0	0
147	1	1	0.0	-0.49999999999999994	126.57368354874333	0	0	0
148	1	1	0.0	0.0	127.43970895252777	0	0	0
149	1	1	0.0	-0.49999999999999994	128.3057343563122	0	0	0
150	1	1	0.0	0.0	129.17175976009665	0	0	0
151	1	1	0.0	-0.49999999999999994	130.0377851638811	0	0	0
152	1	1	0.0	0.0	130.90381056766554	0	0	0
153	1	1	0.0	-0.49999999999999994	131.76983597145	0	0	0
154	1	1	0.0	0.0	132.63586137523444	0	0	0
155	1	1	0.0	-0.49999999999999994	133.5018867790189	0	0	0
156	1	1	0.0	0.0	134.36791218280334	0	0	0
157	1	1	0.0	-0.49999999999999994	135.23393758658779	0	0	0
158	1	1	0.0	0.0	136.09996299037223	0	0	0
159	1	1	0.0	-0.49999999999999994	136.96598839415668	0	0	0
160	1	1	0.0	0.0	137.83201379794113	0	0	0
161	1	1	0.0	-0.49999999999999994	138.69803920172558	0	0	0
162	1	1	0.0	0.0	139.56406460551003	0	0	0
163	1	1	0.0	-0.49999999999999994	140.43009000929447	0	0	0
164	1	1	0.0	0.0	141.29611541307892	0	0	0
165	1	1	0.0	-0.49999999999999994	142.16214081686337	0	0	0
166	1	1	0.0	0.0	143.02816622064782	0	0	0
167	1	1	0.0	-0.49999999999999994	143.89419162443227	0	0	0
168	1	1	0.0	0.0	144.76021702821672	0	0	0
169	1	1	0.0	-0.49999999999999994	145.62624243200116	0	0	0
170	1	1	0.0	0.0	146.4922678357856	0	0	0
171	1	1	0.0	-0.49999999999999994	147.35829323957006	0	0	0
172	1	1	0.0	0.0	148.2243186433545	0	0	0
173	1	1	0.0	-0.49999999999999994	149.09034404713896	0	0	0
174	1	1	0.0	0.0	149.9563694509234	0	0	0
175	1	1	0.0	-0.49999999999999994	150.82239485470785	0	0	0
176	1	1	0.0	0.0	151.6884202584923	0	0	0
177	1	1	0.0	-0.49999999999999994	152.55444566227675	0	0	0
178	1	1	0.0	0.0	153.4204710660612	0	0	0
179	1	1	0.0	-0.49999999999999994	154.28649646984564	0	0	0
180	1	1	0.0	0.0	155.1525218736301	0	0	0
181	1	1	0.0	-0.49999999999999994	156.01854727741454	0	0	0
182	1	1	0.0	0.0	156.884572681199	0	0	0
183	1	1	0.0	-0.49999999999999994	157.75059808498344	0	0	0
184	1	1	0.0	0.0	158.61662348876789	0	0	0
185	1	1	0.0	-0.49999999999999994	159.48264889255233	0	0	0
186	1	1	0.0	0.0	160.34867429633678	0	0	0
187	1	1	0.0	-0.49999999999999994	161.21469970012123	0	0	0
188	1	1	0.0	0.0	162.08072510390568	0	0	0
189	1	1	0.0	-0.49999999999999994	162.94675050769013	0	0	0
190	1	1	0.0	0.0	163.81277591147457	0	0	0
191	1	1	0.0	-0.49999999999999994	164.67880131525902	0	0	0
192	1	1	0.0	0.0	165.54482671904347	0	0	0
193	1	1	0.0	-0.49999999999999994	166.41085212282792	0	0	0
194	1	1	0.0	0.0	167.27687752661237	0	0	0
195	1	1	0.0	-0.49999999999999994	168.14290293039682	0	0	0
196	1	1	0.0	0.0	169.00892833418126	0	0	0
197	1	1	0.0	-0.49999999999999994	169.8749537379657	0	0	0
198	1	1	0.0	0.0	170.74097914175016	0	0	0
199	1	1	0.0	-0.49999999999999994	171.6070045455346	0	0	0
200	1	1	0.0	0.0	172.47302994931906	0	0	0
201	1	1	0.0	-0.49999999999999994	173.3390553531035	0	0	0
202	1	1	0.0	0.0	174.20508075688795	0	0	0
203	1	1	0.0	-0.49999999999999994	175.0711061606724	0	0	0
204	1	1	0.0	0.0	175.93713156445685	0	0	0
205	1	1	0.0	-0.49999999999999994	176.8031569682413	0	0	0
206	1	1	0.0	0.0	177.66918237202574	0	0	0
207	1	1	0.0	-0.49999999999999994	178.5352077758102	0	0	0
208	1	1	0.0	0.0	179.40123317959464	0	0	0
209	1	1	0.0	-0.49999999999999994	180.2672585833791	0	0	0
210	1	1	0.0	0.0	181.13328398716354	0	0	0
211	1	1	0.0	-0.49999999999999994	181.99930939094799	0	0	0
212	1	1	0.0	0.0	182.86533479473243	0	0	0
213	1	1	0.0	-0.49999999999999994	183.73136019851688	0	0	0
214	1	1	0.0	0.0	184.59738560230133	0	0	0
215	1	1	0.0	-0.49999999999999994	185.46341100608578	0	0	0
216	1	1	0.0	0.0	186.32943640987023	0	0	0
217	1	1	0.0	-0.49999999999999994	187.19546181365467	0	0	0
218	1	1	0.0	0.0	188.06148721743912	0	0	0
219	1	1	0.0	-0.49999999999999994	188.92751262122357	0	0	0
220	1	1	0.0	0.0	189.79353802500802	0	0	0
221	1	1	0.0	-0.49999999999999994	190.65956342879247	0	0	0
222	1	1	0.0	0.0	191.52558883257691	0	0	0
223	1	1	0.0	-0.49999999999999994	192.39161423636136	0	0	0
224	1	1	0.0	0.0	193.2576396401458	0	0	0
225	1	1	0.0	-0.49999999999999994	194.12366504393026	0	0	0
226	1	1	0.0	0.0	194.9896904477147	0	0	0
227	1	1	0.0	-0.49999999999999994	195.85571585149916	0	0	0
228	1	1	0.0	0.0	196.7217412552836	0	0	0
229	1	1	0.0	-0.49999999999999994	197.58776665906805	0	0	0
230	1	1	0.0	0.0	198.4537920628525	0	0	0
231	1	1	0.0	-0.49999999999999994	199.31981746663695	0	0	0
232	1	1	0.0	0.0	200.1858428704214	0	0	0
233	1	1	0.0	-0.49999999999999994	201.05186827420584	0	0	0
234	1	1	0.0	0.0	201.9178936779903	0	0	0
235	1	1	0.0	-0.49999999999999994	202.78391908177474	0	0	0
236	1	1	0.0	0.0	203.6499444855592	0	0	0
237	1	1	0.0	-0.49999999999999994	204.51596988934364	0	0	0
238	1	1	0.0	0.0	205.38199529312809	0	0	0
239	1	1	0.0	-0.49999999999999994	206.24802069691253	0	0	0
240	1	1	0.0	0.0	207.11404610069698	0	0	0
241	1	1	0.0	-0.49999999999999994	207.98007150448143	0	0	0
242	1	1	0.0	0.0	208.84609690826588	0	0	0
243	1	1	0.0	-0.49999999999999994	209.71212231205033	0	0	0
244	1	1	0.0	0.0	210.57814771583477	0	0	0
245	1	1	0.0	-0.49999999999999994	211.44417311961922	0	0	0
246	1	1	0.0	0.0	212.31019852340367	0	0	0
247	1	1	0.0	-0.49999999999999994	213.17622392718812	0	0	0
248	1	1	0.0	0.0	214.04224933097257	0	0	0
249	1	1	0.0	-0.49999999999999994	214.90827473475701	0	0	0
250	1	1	0.0	0.0	215.77430013854146	0	0	0
251	1	1	0.0	-0.49999999999999994	216.6403255423259	0	0	0
252	1	1	0.0	0.0	217.50635094611036	0	0	0
253	1	1	0.0	-0.49999999999999994	218.3723763498948	0	0	0
254	1	1	0.0	0.0	219.23840175367926	0	0	0
255	1	1	0.0	-0.49999999999999994	220.1044271574637	0	0	0
256	1	1	0.0	0.0	220.97045256124815	0	0	0
257	1	1	0.0	-0.49999999999999994	221.8364779650326	0	0	0
258	1	1	0.0	0.0	222.70250336881705	0	0	0
259	1	1	0.0	-0.49999999999999994	223.5685287726015	0	0	0
260	1	1	0.0	0.0	224.43455417638594	0	0	0
261	1	1	0.0	-0.49999999999999994	225.3005795801704	0	0	0
262	1	1	0.0	0.0	226.16660498395484	0	0	0
263	1	1	0.0	-0.49999999999999994	227.0326303877393	0	0	0
264	1	1	0.0	0.0	227.89865579152374	0	0	0
265	1	1	0.0	-0.49999999999999994	228.76468119530819	0	0	0
266	1	1	0.0	0.0	229.63070659909263	0	0	0
267	1	1	0.0	-0.49999999999999994	230.49673200287708	0	0	0
268	1	1	0.0	0.0	231.36275740666153	0	0	0
269	1	1	0.0	-0.49999999999999994	232.22878281044598	0	0	0
270	1	1	0.0	0.0	233.09480821423043	0	0	0
271	1	1	0.0	-0.49999999999999994	233.96083361801487	0	0	0
272	1	1	0.0	0.0	234.82685902179932	0	0	0
273	1	1	0.0	-0.49999999999999994	235.69288442558377	0	0	0
274	1	1	0.0	0.0	236.55890982936822	0	0	0
275	1	1	0.0	-0.49999999999999994	237.42493523315267	0	0	0
276	1	1	0.0	0.0	238.29096063693711	0	0	0
277	1	1	0.0	-0.49999999999999994	239.15698604072156	0	0	0
278	1	1	0.0	0.0	240.023011444506	0	0	0
279	1	1	0.0	-0.49999999999999994	240.88903684829046	0	0	0
280	1	1	0.0	0.0	241.7550622520749	0	0	0
281	1	1	0.0	-0.49999999999999994	242.62108765585936	0	0	0
282	1	1	0.0	0.0	243.4871130596438	0	0	0
283	1	1	0.0	-0.49999999999999994	244.35313846342825	0	0	0
284	1	1	0.0	0.0	245.2191638672127	0	0	0
285	1	1	0.0	-0.49999999999999994	246.08518927099715	0	0	0
286	1	1	0.0	0.0	246.9512146747816	0	0	0
287	1	1	0.0	-0.49999999999999994	247.81724007856604	0	0	0
288	1	1	0.0	0.0	248.6832654823505	0	0	0
289	1	1	0.0	-0.49999999999999994	249.54929088613494	0	0	0
290	1	1	0.0	0.0	250.4153162899194	0	0	0
291	1	1	0.0	-0.49999999999999994	251.28134169370384	0	0	0
292	1	1	0.0	0.0	252.14736709748829	0	0	0
293	1	1	0.0	-0.49999999999999994	253.01339250127273	0	0	0
294	1	1	0.0	0.0	253.87941790505718	0	0	0
295	1	1	0.0	-0.49999999999999994	254.74544330884163	0	0	0
296	1	1	0.0	0.0	255.61146871262608	0	0	0
297	1	1	0.0	-0.49999999999999994	256.4774941164105	0	0	0
298	1	1	0.0	0.0	257.34351952019495	0	0	0
299	1	1	0.0	-0.49999999999999994	258.20954492397937	0	0	0
300	1	1	0.0	0.0	259.0755703277638	0	0	0
301	1	1	0.0	-0.49999999999999994	259.9415957315482	0	0	0
302	1	1	0.0	0.0	260.8076211353326	0	0	0
303	1	1	0.0	-0.49999999999999994	261.67364653911704	0	0	0
304	1	1	0.0	0.0	262.53967194290146	0	0	0
305	1	1	0.0	-0.49999999999999994	263.4056973466859	0	0	0
306	1	1	0.0	0.0	264.2717227504703	0	0	0
307	1	1	0.0	-0.49999999999999994	265.1377481542547	0	0	0
308	1	1	0.0	0.0	266.00377355803914	0	0	0
309	1	1	0.0	-0.49999999999999994	266.86979896182356	0	0	0
310	1	1	0.0	0.0	267.735824365608	0	0	0
311	1	1	0.0	-0.49999999999999994	268.6018497693924	0	0	0
312	1	1	0.0	0.0	269.4678751731768	0	0	0
313	1	1	0.0	-0.49999999999999994	270.33390057696124	0	0	0
314	1	1	0.0	0.0	271.19992598074566	0	0	0
315	1	1	0.0	-0.49999999999999994	272.0659513845301	0	0	0
316	1	1	0.0	0.0	272.9319767883145	0	0	0
317	1	1	0.0	-0.49999999999999994	273.7980021920989	0	0	0
318	1	1	0.0	0.0	274.66402759588334	0	0	0
319	1	1	0.0	-0.49999999999999994	275.53005299966776	0	0	0
320	1	1	0.0	0.0	276.3960784034522	0	0	0
321	1	1	0.0	-0.49999999999999994	277.2621038072366	0	0	0
322	1	1	0.0	0.0	278.128129211021	0	0	0
323	1	1	0.0	-0.49999999999999994	278.99415461480544	0	0	0
324	1	1	0.0	0.0	279.86018001858986	0	0	0
325	1	1	0.0	-0.49999999999999994	280.7262054223743	0	0	0
326	1	1	0.0	0.0	281.5922308261587	0	0	0
327	1	1	0.0	-0.49999999999999994	282.4582562299431	0	0	0
328	1	1	0.0	0.0	283.32428163372754	0	0	0
329	1	1	0.0	-0.49999999999999994	284.19030703751196	0	0	0
330	1	1	0.0	0.0	285.0563324412964	0	0	0
331	1	1	0.0	-0.49999999999999994	285.9223578450808	0	0	0
332	1	1	0.0	0.0	286.7883832488652	0	0	0
333	1	1	0.0	-0.49999999999999994	287.65440865264964	0	0	0
334	1	1	0.0	0.0	288.52043405643406	0	0	0
335	1	1	0.4337654361925539	-0.3991422492593514	289.3282292106785	0	0	0
336	1	1	0.867530872385115	-1.1487071539638543	289.8282292106785	0	0	0
337	1	1	1.301296308577676	-1.0904769044238805	290.72737145993784	0	0	0
338	1	1	1.735061744770237	-1.8400418091283832	291.22737145993784	0	0	0
339	1	1	2.168827180962798	-1.7818115595884094	292.1265137091972	0	0	0
340	1	1	2.602592617155359	-2.5313764642929124	292.6265137091972	0	0	0
341	1	1	3.0363580533479197	-2.473146214752939	293.5256559584565	0	0	0
342	1	1	3.4701234895404807	-3.2227111194574416	294.0256559584565	0	0	0
343	1	1	3.9038889257330416	-3.164480869917468	294.92479820771587	0	0	0
344	1	1	4.337654361925603	-3.914045774621971	295.42479820771587	0	0	0
345	1	1	4.771419798118164	-3.855815525081997	296.3239404569752	0	0	0
346	1	1	5.205185234310726	-4.6053804297865	296.8239404569752	0	0	0
347	1	1	5.638950670503287	-4.547150180246526	297.72308270623455	0	0	0
348	1	1	6.072716106695848	-5.296715084951029	298.22308270623455	0	0	0
349	1	1	6.50648154288841	-5.238484835411056	299.1222249554939	0	0	0
350	1	1	6.940246979080971	-5.988049740115558	299.6222249554939	0	0	0
351	1	1	7.3740124152735325	-5.929819490575585	300.52136720475323	0	0	0
352	1	1	7.807777851466094	-6.6793843952800875	301.02136720475323	0	0	0
353	1	1	8.241543287658654	-6.621154145740114	301.9205094540126	0	0	0
354	1	1	8.675308723851215	-7.370719050444617	302.4205094540126	0	0	0
355	1	1	9.109074160043775	-7.312488800904643	303.3196517032719	0	0	0
356	1	1	9.542839596236336	-8.062053705609147	303.8196517032719	0	0	0
357	1	1	9.976605032428896	-8.003823456069172	304.71879395253126	0	0	0
358	1	1	10.410370468621457	-8.753388360773675	305.21879395253126	0	0	0
359	1	1	10.844135904814017	-8.6951581112337	306.1179362017906	0	0	0
360	1	1	11.277901341006578	-9.444723015938203	306.6179362017906	0	0	0
361	1	1	11.711666777199138	-9.386492766398229	307.51707845104994	0	0	0
362	1	1	12.145432213391699	-10.136057671102732	308.01707845104994	0	0	0
363	1	1	12.579197649584259	-10.077827421562757	308.9162207003093	0	0	0
364	1	1	13.01296308577682	-10.82739232626726	309.4162207003093	0	0	0
365	1	1	13.44672852196938	-10.769162076727286	310.3153629495686	0	0	0
366	1	1	13.88049395816194	-11.518726981431788	310.8153629495686	0	0	0
367	1	1	14.314259394354501	-11.460496731891814	311.71450519882796	0	0	0
368	1	1	14.748024830547061	-12.210061636596317	312.21450519882796	0	0	0
369	1	1	15.181790266739622	-12.151831387056342	313.1136474480873	0	0	0
370	1	1	15.615555702932182	-12.901396291760845	313.6136474480873	0	0	0
371	1	1	16.049321139124743	-12.84316604222087	314.51278969734665	0	0	0
372	1	1	16.483086575317305	-13.592730946925373	315.01278969734665	0	0	0
373	1	1	16.916852011509867	-13.534500697385399	315.911931946606	0	0	0
374	1	1	17.35061744770243	-14.284065602089902	316.411931946606	0	0	0
375	1	1	17.784382883894992	-14.225835352549927	317.31107419586533	0	0	0
376	1	1	18.218148320087554	-14.97540025725443	317.81107419586533	0	0	0
377	1	1	18.651913756280116	-14.917170007714455	318.7102164451247	0	0	0
378	1	1	19.08567919247268	-15.666734912418958	319.2102164451247	0	0	0
379	1	1	19.51944462866524	-15.608504662878984	320.109358694384	0	0	0
380	1	1	19.953210064857803	-16.358069567583488	320.609358694384	0	0	0
381	1	1	20.386975501050365	-16.299839318043514	321.50850094364336	0	0	0
382	1	1	20.820740937242928	-17.049404222748016	322.00850094364336	0	0	0
383	1	1	21.25450637343549	-16.991173973208042	322.9076431929027	0	0	0
384	1	1	21.688271809628052	-17.740738877912545	323.4076431929027	0	0	0
385	1	1	22.122037245820614	-17.68250862837257	324.30678544216204	0	0	0
386	1	1	22.555802682013177	-18.432073533077073	324.80678544216204	0	0	0
387	1	1	22.98956811820574	-18.3738432835371	325.7059276914214	0	0	0
388	1	1	23.4233335543983	-19.1234081882416	326.2059276914214	0	0	0
389	1	1	23.857098990590863	-19.065177938701627	327.1050699406807	0	0	0
390	1	1	24.290864426783426	-19.81474284340613	327.6050699406807	0	0	0
391	1	1	24.724629862975988	-19.756512593866155	328.50421218994006	0	0	0
392	1	1	25.15839529916855	-20.506077498570658	329.00421218994006	0	0	0
393	1	1	25.592160735361112	-20.447847249030684	329.9033544391994	0	0	0
394	1	1	26.025926171553674	-21.197412153735186	330.4033544391994	0	0	0
395	1	1	26.459691607746237	-21.139181904195212	331.30249668845875	0	0	0
396	1	1	26.8934570439388	-21.888746808899715	331.80249668845875	0	0	0
397	1	1	27.32722248013136	-21.83051655935974	332.7016389377181	0	0	0
398	1	1	27.760987916323923	-22.580081464064243	333.2016389377181	0	0	0
399	1	1	28.194753352516486	-22.52185121452427	334.10078118697743	0	0	0
400	1	1	28.628518788709048	-23.27141611922877	334.60078118697743	0	0	0
401	1	1	29.06228422490161	-23.213185869688797	335.49992343623677	0	0	0
402	1	1	29.496049661094172	-23.9627507743933	335.99992343623677	0	0	0
403	1	1	29.929815097286735	-23.904520524853325	336.8990656854961	0	0	0
404	1	1	30.363580533479297	-24.654085429557828	337.3990656854961	0	0	0
405	1	1	30.79734596967186	-24.595855180017853	338.29820793475545	0	0	0
406	1	1	31.23111140586442	-25.345420084722356	338.79820793475545	0	0	0
407	1	1	31.664876842056984	-25.28718983518238	339.6973501840148	0	0	0
408	1	1	32.09864227824954	-26.036754739886884	340.1973501840148	0	0	0
409	1	1	32.5324077144421	-25.97852449034691	341.09649243327414	0	0	0
410	1	1	32.96617315063466	-26.728089395051413	341.59649243327414	0	0	0
411	1	1	33.39993858682722	-26.669859145511438	342.4956346825335	0	0	0
412	1	1	33.83370402301978	-27.41942405021594	342.9956346825335	0	0	0
413	1	1	34.267469459212336	-27.361193800675967	343.8947769317928	0	0	0
414	1	1	34.701234895404895	-28.11075870538047	344.3947769317928	0	0	0
415	1	1	35.13500033159745	-28.052528455840495	345.29391918105216	0	0	0
416	1	1	35.56876576779001	-28.802093360544998	345.79391918105216	0	0	0
417	1	1	36.00253120398257	-28.743863111005023	346.6930614303115	0	0	0
418	1	1	36.43629664017513	-29.493428015709526	347.1930614303115	0	0	0
419	1	1	36.87006207636769	-29.43519776616955	348.09220367957084	0	0	0
420	1	1	37.30382751256025	-30.184762670874054	348.59220367957084	0	0	0
421	1	1	37.737592948752805	-30.12653242133408	349.4913459288302	0	0	0
422	1	1	38.171358384945364	-30.876097326038582	349.9913459288302	0	0	0
423	1	1	38.60512382113792	-30.817867076498608	350.8904881780895	0	0	0
424	1	1	39.03888925733048	-31.56743198120311	351.3904881780895	0	0	0
425	1	1	39.47265469352304	-31.509201731663136	352.28963042734887	0	0	0
426	1	1	39.9064201297156	-32.25876663636764	352.78963042734887	0	0	0
427	1	1	40.34018556590816	-32.200536386827665	353.6887726766082	0	0	0
428	1	1	40.773951002100716	-32.95010129153217	354.1887726766082	0	0	0
429	1	1	41.207716438293275	-32.8918710419922	355.08791492586755	0	0	0
430	1	1	41.641481874485834	-33.6414359466967	355.58791492586755	0	0	0
431	1	1	42.07524731067839	-33.58320569715673	356.4870571751269	0	0	0
432	1	1	42.50901274687095	-34.332770601861235	356.9870571751269	0	0	0
433	1	1	42.94277818306351	-34.27454035232126	357.88619942438623	0	0	0
434	1	1	43.37654361925607	-35.02410525702577	358.38619942438623	0	0	0
435	1	1	43.81030905544863	-34.96587500748579	359.2853416736456	0	0	0
436	1	1	44.244074491641186	-35.7154399121903	359.7853416736456	0	0	0
437	1	1	44.677839927833745	-35.657209662650324	360.6844839229049	0	0	0
438	1	1	45.1116053640263	-36.40677456735483	361.1844839229049	0	0	0
439	1	1	45.54537080021886	-36.348544317814856	362.08362617216426	0	0	0
440	1	1	45.97913623641142	-37.09810922251936	362.58362617216426	0	0	0
441	1	1	46.41290167260398	-37.03987897297939	363.4827684214236	0	0	0
442	1	1	46.84666710879654	-37.789443877683894	363.9827684214236	0	0	0
443	1	1	47.2804325449891	-37.73121362814392	364.88191067068294	0	0	0
444	1	1	47.714197981181655	-38.480778532848426	365.38191067068294	0	0	0
445	1	1	48.147963417374214	-38.42254828330845	366.2810529199423	0	0	0
446	1	1	48.58172885356677	-39.17211318801296	366.7810529199423	0	0	0
447	1	1	49.01549428975933	-39.11388293847298	367.6801951692016	0	0	0
448	1	1	49.44925972595189	-39.86344784317749	368.1801951692016	0	0	0
449	1	1	49.88302516214445	-39.805217593637515	369.07933741846097	0	0	0
450	1	1	50.31679059833701	-40.55478249834202	369.57933741846097	0	0	0
451	1	1	50.750556034529566	-40.49655224880205	370.4784796677203	0	0	0
452	1	1	51.184321470722125	-41.24611715350655	370.9784796677203	0	0	0
453	1	1	51.618086906914684	-41.18788690396658	371.87762191697965	0	0	0
454	1	1	52.05185234310724	-41.937451808671085	372.37762191697965	0	0	0
455	1	1	52.4856177792998	-41.87922155913111	373.276764166239	0	0	0
456	1	1	52.91938321549236	-42.62878646383562	373.776764166239	0	0	0
457	1	1	53.35314865168492	-42.57055621429564	374.67590641549833	0	0	0
458	1	1	53.78691408787748	-43.32012111900015	375.17590641549833	0	0	0
459	1	1	54.220679524070036	-43.261890869460174	376.0750486647577	0	0	0
460	1	1	54.654444960262595	-44.01145577416468	376.5750486647577	0	0	0
461	1	1	55.08821039645515	-43.953225524624706	377.474190914017	0	0	0
462	1	1	55.52197583264771	-44.70279042932921	377.974190914017	0	0	0
463	1	1	55.95574126884027	-44.64456017978924	378.87333316327636	0	0	0
464	1	1	56.38950670503283	-45.394125084493744	379.37333316327636	0	0	0
465	1	1	56.82327214122539	-45.33589483495377	380.2724754125357	0	0	0
466	1	1	57.25703757741795	-46.085459739658276	380.7724754125357	0	0	0
467	1	1	57.690803013610505	-46.0272294901183	381.67161766179504	0	0	0
468	1	1	58.124568449803064	-46.77679439482281	382.17161766179504	0	0	0
469	1	1	58.55833388599562	-46.71856414528283	383.0707599110544	0	0	0
470	1	1	58.99209932218818	-47.46812904998734	383.5707599110544	0	0	0
471	1	1	59.42586475838074	-47.409898800447365	384.4699021603137	0	0	0
472	1	1	59.8596301945733	-48.15946370515187	384.9699021603137	0	0	0
473	1	1	60.29339563076586	-48.1012334556119	385.86904440957306	0	0	0
474	1	1	60.727161066958416	-48.8507983603164	386.36904440957306	0	0	0
475	1	1	61.160926503150975	-48.79256811077643	387.2681866588324	0	0	0
476	1	1	61.594691939343534	-49.542133015480935	387.7681866588324	0	0	0
477	1	1	62.02845737553609	-49.48390276594096	388.66732890809175	0	0	0
478	1	1	62.46222281172865	-50.23346767064547	389.16732890809175	0	0	0
479	1	1	62.89598824792121	-50.17523742110549	390.0664711573511	0	0	0
480	1	1	63.32975368411377	-50.92480232581	390.5664711573511	0	0	0
481	1	1	63.76351912030633	-50.866572076270025	391.46561340661043	0	0	0
482	1	1	64.19728455649889	-51.61613698097453	391.96561340661043	0	0	0
483	1	1	64.63104999269144	-51.55790673143456	392.86475565586977	0	0	0
484	1	1	65.064815428884	-52.30747163613906	393.36475565586977	0	0	0
485	1	1	65.49858086507656	-52.24924138659909	394.2638979051291	0	0	0
486	1	1	65.93234630126912	-52.998806291303595	394.7638979051291	0	0	0
487	1	1	66.36611173746168	-52.94057604176362	395.66304015438845	0	0	0
488	1	1	66.79987717365424	-53.69014094646813	396.16304015438845	0	0	0
489	1	1	67.2336426098468	-53.63191069692815	397.0621824036478	0	0	0
490	1	1	67.66740804603936	-54.38147560163266	397.5621824036478	0	0	0
491	1	1	68.10117348223191	-54.323245352092684	398.46132465290714	0	0	0
492	1	1	68.53493891842447	-55.07281025679719	398.96132465290714	0	0	0
493	1	1	68.96870435461703	-55.014580007257216	399.8604669021665	0	0	0
494	1	1	69.40246979080959	-55.76414491196172	400.3604669021665	0	0	0
495	1	1	69.83623522700215	-55.70591466242175	401.2596091514258	0	0	0
496	1	1	70.27000066319471	-56.455479567126254	401.7596091514258	0	0	0
497	1	1	70.70376609938727	-56.39724931758628	402.65875140068516	0	0	0
498	1	1	71.13753153557983	-57.146814222290786	403.15875140068516	0	0	0
499	1	1	71.57129697177238	-57.08858397275081	404.0578936499445	0	0	0
500	1	1	72.00506240796494	-57.83814887745532	404.5578936499445	0	0	0
501	1	1	72.4388278441575	-57.77991862791534	405.45703589920385	0	0	0
502	1	1	72.87259328035006	-58.52948353261985	405.95703589920385	0	0	0
503	1	1	73.30635871654262	-58.471253283079875	406.8561781484632	0	0	0
504	1	1	73.74012415273518	-59.22081818778438	407.3561781484632	0	0	0
505	1	1	74.17388958892774	-59.16258793824441	408.2553203977225	0	0	0
506	1	1	74.6076550251203	-59.91215284294891	408.7553203977225	0	0	0
507	1	1	75.04142046131285	-59.85392259340894	409.65446264698187	0	0	0
508	1	1	75.47518589750541	-60.603487498113445	410.15446264698187	0	0	0
509	1	1	75.90895133369797	-60.54525724857347	411.0536048962412	0	0	0
510	1	1	76.34271676989053	-61.29482215327798	411.5536048962412	0	0	0
511	1	1	76.77648220608309	-61.236591903738	412.45274714550055	0	0	0
512	1	1	77.21024764227565	-61.98615680844251	412.95274714550055	0	0	0
513	1	1	77.6440130784682	-61.927926558902534	413.8518893947599	0	0	0
514	1	1	78.07777851466076	-62.67749146360704	414.3518893947599	0	0	0
515	1	1	78.51154395085332	-62.619261214067066	415.25103164401924	0	0	0
516	1	1	78.94530938704588	-63.36882611877157	415.75103164401924	0	0	0
517	1	1	79.37907482323844	-63.3105958692316	416.6501738932786	0	0	0
518	1	1	79.812840259431	-64.0601607739361	417.1501738932786	0	0	0
519	1	1	80.24660569562356	-64.00193052439613	418.0493161425379	0	0	0
520	1	1	80.68037113181612	-64.75149542910063	418.5493161425379	0	0	0
521	1	1	81.11413656800867	-64.69326517956065	419.44845839179726	0	0	0
522	1	1	81.54790200420123	-65.44283008426515	419.94845839179726	0	0	0
523	1	1	81.98166744039379	-65.38459983472518	420.8476006410566	0	0	0
524	1	1	82.41543287658635	-66.13416473942968	421.3476006410566	0	0	0
525	1	1	82.84919831277891	-66.0759344898897	422.24674289031594	0	0	0
526	1	1	83.28296374897147	-66.8254993945942	422.74674289031594	0	0	0
527	1	1	83.71672918516403	-66.76726914505423	423.6458851395753	0	0	0
528	1	1	84.15049462135659	-67.51683404975873	424.1458851395753	0	0	0