bb733nuc1bl366bn3d30tot1100V2

1099 atoms
1098 bonds
1098 angles

1 atom types
1 bond types
1 angle types

-1000 1000 xlo xhi
-1000 1000 ylo yhi
-1000 1000 zlo zhi

Masses

1 1

Atoms

1	1	1	0.0	0.0	0.0	0	0	0
2	1	1	0.0	0.0	1.0	0	0	0
3	1	1	0.0	-0.49999999999999994	1.8660254037844388	0	0	0
4	1	1	0.0	0.0	2.7320508075688776	0	0	0
5	1	1	0.0	-0.49999999999999994	3.5980762113533165	0	0	0
6	1	1	0.0	0.0	4.464101615137755	0	0	0
7	1	1	0.0	-0.49999999999999994	5.330127018922194	0	0	0
8	1	1	0.0	0.0	6.196152422706632	0	0	0
9	1	1	0.0	-0.49999999999999994	7.06217782649107	0	0	0
10	1	1	0.0	0.0	7.928203230275509	0	0	0
11	1	1	0.0	-0.49999999999999994	8.794228634059948	0	0	0
12	1	1	0.0	0.0	9.660254037844387	0	0	0
13	1	1	0.0	-0.49999999999999994	10.526279441628827	0	0	0
14	1	1	0.0	0.0	11.392304845413266	0	0	0
15	1	1	0.0	-0.49999999999999994	12.258330249197705	0	0	0
16	1	1	0.0	0.0	13.124355652982144	0	0	0
17	1	1	0.0	-0.49999999999999994	13.990381056766584	0	0	0
18	1	1	0.0	0.0	14.856406460551023	0	0	0
19	1	1	0.0	-0.49999999999999994	15.722431864335462	0	0	0
20	1	1	0.0	0.0	16.5884572681199	0	0	0
21	1	1	0.0	-0.49999999999999994	17.454482671904337	0	0	0
22	1	1	0.0	0.0	18.320508075688775	0	0	0
23	1	1	0.0	-0.49999999999999994	19.186533479473212	0	0	0
24	1	1	0.0	0.0	20.05255888325765	0	0	0
25	1	1	0.0	-0.49999999999999994	20.918584287042087	0	0	0
26	1	1	0.0	0.0	21.784609690826525	0	0	0
27	1	1	0.0	-0.49999999999999994	22.650635094610962	0	0	0
28	1	1	0.0	0.0	23.5166604983954	0	0	0
29	1	1	0.0	-0.49999999999999994	24.382685902179837	0	0	0
30	1	1	0.0	0.0	25.248711305964274	0	0	0
31	1	1	0.0	-0.49999999999999994	26.114736709748712	0	0	0
32	1	1	0.0	0.0	26.98076211353315	0	0	0
33	1	1	0.0	-0.49999999999999994	27.846787517317587	0	0	0
34	1	1	0.0	0.0	28.712812921102024	0	0	0
35	1	1	0.0	-0.49999999999999994	29.578838324886462	0	0	0
36	1	1	0.0	0.0	30.4448637286709	0	0	0
37	1	1	0.0	-0.49999999999999994	31.310889132455337	0	0	0
38	1	1	0.0	0.0	32.17691453623978	0	0	0
39	1	1	0.0	-0.49999999999999994	33.04293994002422	0	0	0
40	1	1	0.0	0.0	33.90896534380866	0	0	0
41	1	1	0.0	-0.49999999999999994	34.7749907475931	0	0	0
42	1	1	0.0	0.0	35.64101615137754	0	0	0
43	1	1	0.0	-0.49999999999999994	36.50704155516198	0	0	0
44	1	1	0.0	0.0	37.373066958946424	0	0	0
45	1	1	0.0	-0.49999999999999994	38.239092362730865	0	0	0
46	1	1	0.0	0.0	39.105117766515306	0	0	0
47	1	1	0.0	-0.49999999999999994	39.97114317029975	0	0	0
48	1	1	0.0	0.0	40.83716857408419	0	0	0
49	1	1	0.0	-0.49999999999999994	41.70319397786863	0	0	0
50	1	1	0.0	0.0	42.56921938165307	0	0	0
51	1	1	0.0	-0.49999999999999994	43.43524478543751	0	0	0
52	1	1	0.0	0.0	44.30127018922195	0	0	0
53	1	1	0.0	-0.49999999999999994	45.16729559300639	0	0	0
54	1	1	0.0	0.0	46.033320996790835	0	0	0
55	1	1	0.0	-0.49999999999999994	46.899346400575276	0	0	0
56	1	1	0.0	0.0	47.76537180435972	0	0	0
57	1	1	0.0	-0.49999999999999994	48.63139720814416	0	0	0
58	1	1	0.0	0.0	49.4974226119286	0	0	0
59	1	1	0.0	-0.49999999999999994	50.36344801571304	0	0	0
60	1	1	0.0	0.0	51.22947341949748	0	0	0
61	1	1	0.0	-0.49999999999999994	52.09549882328192	0	0	0
62	1	1	0.0	0.0	52.96152422706636	0	0	0
63	1	1	0.0	-0.49999999999999994	53.827549630850804	0	0	0
64	1	1	0.0	0.0	54.693575034635245	0	0	0
65	1	1	0.0	-0.49999999999999994	55.559600438419686	0	0	0
66	1	1	0.0	0.0	56.42562584220413	0	0	0
67	1	1	0.0	-0.49999999999999994	57.29165124598857	0	0	0
68	1	1	0.0	0.0	58.15767664977301	0	0	0
69	1	1	0.0	-0.49999999999999994	59.02370205355745	0	0	0
70	1	1	0.0	0.0	59.88972745734189	0	0	0
71	1	1	0.0	-0.49999999999999994	60.75575286112633	0	0	0
72	1	1	0.0	0.0	61.62177826491077	0	0	0
73	1	1	0.0	-0.49999999999999994	62.487803668695214	0	0	0
74	1	1	0.0	0.0	63.353829072479655	0	0	0
75	1	1	0.0	-0.49999999999999994	64.21985447626409	0	0	0
76	1	1	0.0	0.0	65.08587988004852	0	0	0
77	1	1	0.0	-0.49999999999999994	65.95190528383296	0	0	0
78	1	1	0.0	0.0	66.81793068761739	0	0	0
79	1	1	0.0	-0.49999999999999994	67.68395609140183	0	0	0
80	1	1	0.0	0.0	68.54998149518626	0	0	0
81	1	1	0.0	-0.49999999999999994	69.41600689897069	0	0	0
82	1	1	0.0	0.0	70.28203230275513	0	0	0
83	1	1	0.0	-0.49999999999999994	71.14805770653956	0	0	0
84	1	1	0.0	0.0	72.014083110324	0	0	0
85	1	1	0.0	-0.49999999999999994	72.88010851410843	0	0	0
86	1	1	0.0	0.0	73.74613391789286	0	0	0
87	1	1	0.0	-0.49999999999999994	74.6121593216773	0	0	0
88	1	1	0.0	0.0	75.47818472546173	0	0	0
89	1	1	0.0	-0.49999999999999994	76.34421012924616	0	0	0
90	1	1	0.0	0.0	77.2102355330306	0	0	0
91	1	1	0.0	-0.49999999999999994	78.07626093681503	0	0	0
92	1	1	0.0	0.0	78.94228634059947	0	0	0
93	1	1	0.0	-0.49999999999999994	79.8083117443839	0	0	0
94	1	1	0.0	0.0	80.67433714816833	0	0	0
95	1	1	0.0	-0.49999999999999994	81.54036255195277	0	0	0
96	1	1	0.0	0.0	82.4063879557372	0	0	0
97	1	1	0.0	-0.49999999999999994	83.27241335952164	0	0	0
98	1	1	0.0	0.0	84.13843876330607	0	0	0
99	1	1	0.0	-0.49999999999999994	85.0044641670905	0	0	0
100	1	1	0.0	0.0	85.87048957087494	0	0	0
101	1	1	0.0	-0.49999999999999994	86.73651497465937	0	0	0
102	1	1	0.0	0.0	87.6025403784438	0	0	0
103	1	1	0.0	-0.49999999999999994	88.46856578222824	0	0	0
104	1	1	0.0	0.0	89.33459118601267	0	0	0
105	1	1	0.0	-0.49999999999999994	90.20061658979711	0	0	0
106	1	1	0.0	0.0	91.06664199358154	0	0	0
107	1	1	0.0	-0.49999999999999994	91.93266739736598	0	0	0
108	1	1	0.0	0.0	92.79869280115041	0	0	0
109	1	1	0.0	-0.49999999999999994	93.66471820493484	0	0	0
110	1	1	0.0	0.0	94.53074360871928	0	0	0
111	1	1	0.0	-0.49999999999999994	95.39676901250371	0	0	0
112	1	1	0.0	0.0	96.26279441628814	0	0	0
113	1	1	0.0	-0.49999999999999994	97.12881982007258	0	0	0
114	1	1	0.0	0.0	97.99484522385701	0	0	0
115	1	1	0.0	-0.49999999999999994	98.86087062764145	0	0	0
116	1	1	0.0	0.0	99.72689603142588	0	0	0
117	1	1	0.0	-0.49999999999999994	100.59292143521031	0	0	0
118	1	1	0.0	0.0	101.45894683899475	0	0	0
119	1	1	0.0	-0.49999999999999994	102.32497224277918	0	0	0
120	1	1	0.0	0.0	103.19099764656362	0	0	0
121	1	1	0.0	-0.49999999999999994	104.05702305034805	0	0	0
122	1	1	0.0	0.0	104.92304845413248	0	0	0
123	1	1	0.0	-0.49999999999999994	105.78907385791692	0	0	0
124	1	1	0.0	0.0	106.65509926170135	0	0	0
125	1	1	0.0	-0.49999999999999994	107.52112466548579	0	0	0
126	1	1	0.0	0.0	108.38715006927022	0	0	0
127	1	1	0.0	-0.49999999999999994	109.25317547305465	0	0	0
128	1	1	0.0	0.0	110.11920087683909	0	0	0
129	1	1	0.0	-0.49999999999999994	110.98522628062352	0	0	0
130	1	1	0.0	0.0	111.85125168440796	0	0	0
131	1	1	0.0	-0.49999999999999994	112.71727708819239	0	0	0
132	1	1	0.0	0.0	113.58330249197682	0	0	0
133	1	1	0.0	-0.49999999999999994	114.44932789576126	0	0	0
134	1	1	0.0	0.0	115.31535329954569	0	0	0
135	1	1	0.0	-0.49999999999999994	116.18137870333013	0	0	0
136	1	1	0.0	0.0	117.04740410711456	0	0	0
137	1	1	0.0	-0.49999999999999994	117.913429510899	0	0	0
138	1	1	0.0	0.0	118.77945491468343	0	0	0
139	1	1	0.0	-0.49999999999999994	119.64548031846786	0	0	0
140	1	1	0.0	0.0	120.5115057222523	0	0	0
141	1	1	0.0	-0.49999999999999994	121.37753112603673	0	0	0
142	1	1	0.0	0.0	122.24355652982116	0	0	0
143	1	1	0.0	-0.49999999999999994	123.1095819336056	0	0	0
144	1	1	0.0	0.0	123.97560733739003	0	0	0
145	1	1	0.0	-0.49999999999999994	124.84163274117446	0	0	0
146	1	1	0.0	0.0	125.7076581449589	0	0	0
147	1	1	0.0	-0.49999999999999994	126.57368354874333	0	0	0
148	1	1	0.0	0.0	127.43970895252777	0	0	0
149	1	1	0.0	-0.49999999999999994	128.3057343563122	0	0	0
150	1	1	0.0	0.0	129.17175976009665	0	0	0
151	1	1	0.0	-0.49999999999999994	130.0377851638811	0	0	0
152	1	1	0.0	0.0	130.90381056766554	0	0	0
153	1	1	0.0	-0.49999999999999994	131.76983597145	0	0	0
154	1	1	0.0	0.0	132.63586137523444	0	0	0
155	1	1	0.0	-0.49999999999999994	133.5018867790189	0	0	0
156	1	1	0.0	0.0	134.36791218280334	0	0	0
157	1	1	0.0	-0.49999999999999994	135.23393758658779	0	0	0
158	1	1	0.0	0.0	136.09996299037223	0	0	0
159	1	1	0.0	-0.49999999999999994	136.96598839415668	0	0	0
160	1	1	0.0	0.0	137.83201379794113	0	0	0
161	1	1	0.0	-0.49999999999999994	138.69803920172558	0	0	0
162	1	1	0.0	0.0	139.56406460551003	0	0	0
163	1	1	0.0	-0.49999999999999994	140.43009000929447	0	0	0
164	1	1	0.0	0.0	141.29611541307892	0	0	0
165	1	1	0.0	-0.49999999999999994	142.16214081686337	0	0	0
166	1	1	0.0	0.0	143.02816622064782	0	0	0
167	1	1	0.0	-0.49999999999999994	143.89419162443227	0	0	0
168	1	1	0.0	0.0	144.76021702821672	0	0	0
169	1	1	0.0	-0.49999999999999994	145.62624243200116	0	0	0
170	1	1	0.0	0.0	146.4922678357856	0	0	0
171	1	1	0.0	-0.49999999999999994	147.35829323957006	0	0	0
172	1	1	0.0	0.0	148.2243186433545	0	0	0
173	1	1	0.0	-0.49999999999999994	149.09034404713896	0	0	0
174	1	1	0.0	0.0	149.9563694509234	0	0	0
175	1	1	0.0	-0.49999999999999994	150.82239485470785	0	0	0
176	1	1	0.0	0.0	151.6884202584923	0	0	0
177	1	1	0.0	-0.49999999999999994	152.55444566227675	0	0	0
178	1	1	0.0	0.0	153.4204710660612	0	0	0
179	1	1	0.0	-0.49999999999999994	154.28649646984564	0	0	0
180	1	1	0.0	0.0	155.1525218736301	0	0	0
181	1	1	0.0	-0.49999999999999994	156.01854727741454	0	0	0
182	1	1	0.0	0.0	156.884572681199	0	0	0
183	1	1	0.0	-0.49999999999999994	157.75059808498344	0	0	0
184	1	1	0.0	0.0	158.61662348876789	0	0	0
185	1	1	0.0	-0.49999999999999994	159.48264889255233	0	0	0
186	1	1	0.0	0.0	160.34867429633678	0	0	0
187	1	1	0.0	-0.49999999999999994	161.21469970012123	0	0	0
188	1	1	0.0	0.0	162.08072510390568	0	0	0
189	1	1	0.0	-0.49999999999999994	162.94675050769013	0	0	0
190	1	1	0.0	0.0	163.81277591147457	0	0	0
191	1	1	0.0	-0.49999999999999994	164.67880131525902	0	0	0
192	1	1	0.0	0.0	165.54482671904347	0	0	0
193	1	1	0.0	-0.49999999999999994	166.41085212282792	0	0	0
194	1	1	0.0	0.0	167.27687752661237	0	0	0
195	1	1	0.0	-0.49999999999999994	168.14290293039682	0	0	0
196	1	1	0.0	0.0	169.00892833418126	0	0	0
197	1	1	0.0	-0.49999999999999994	169.8749537379657	0	0	0
198	1	1	0.0	0.0	170.74097914175016	0	0	0
199	1	1	0.0	-0.49999999999999994	171.6070045455346	0	0	0
200	1	1	0.0	0.0	172.47302994931906	0	0	0
201	1	1	0.0	-0.49999999999999994	173.3390553531035	0	0	0
202	1	1	0.0	0.0	174.20508075688795	0	0	0
203	1	1	0.0	-0.49999999999999994	175.0711061606724	0	0	0
204	1	1	0.0	0.0	175.93713156445685	0	0	0
205	1	1	0.0	-0.49999999999999994	176.8031569682413	0	0	0
206	1	1	0.0	0.0	177.66918237202574	0	0	0
207	1	1	0.0	-0.49999999999999994	178.5352077758102	0	0	0
208	1	1	0.0	0.0	179.40123317959464	0	0	0
209	1	1	0.0	-0.49999999999999994	180.2672585833791	0	0	0
210	1	1	0.0	0.0	181.13328398716354	0	0	0
211	1	1	0.0	-0.49999999999999994	181.99930939094799	0	0	0
212	1	1	0.0	0.0	182.86533479473243	0	0	0
213	1	1	0.0	-0.49999999999999994	183.73136019851688	0	0	0
214	1	1	0.0	0.0	184.59738560230133	0	0	0
215	1	1	0.0	-0.49999999999999994	185.46341100608578	0	0	0
216	1	1	0.0	0.0	186.32943640987023	0	0	0
217	1	1	0.0	-0.49999999999999994	187.19546181365467	0	0	0
218	1	1	0.0	0.0	188.06148721743912	0	0	0
219	1	1	0.0	-0.49999999999999994	188.92751262122357	0	0	0
220	1	1	0.0	0.0	189.79353802500802	0	0	0
221	1	1	0.0	-0.49999999999999994	190.65956342879247	0	0	0
222	1	1	0.0	0.0	191.52558883257691	0	0	0
223	1	1	0.0	-0.49999999999999994	192.39161423636136	0	0	0
224	1	1	0.0	0.0	193.2576396401458	0	0	0
225	1	1	0.0	-0.49999999999999994	194.12366504393026	0	0	0
226	1	1	0.0	0.0	194.9896904477147	0	0	0
227	1	1	0.0	-0.49999999999999994	195.85571585149916	0	0	0
228	1	1	0.0	0.0	196.7217412552836	0	0	0
229	1	1	0.0	-0.49999999999999994	197.58776665906805	0	0	0
230	1	1	0.0	0.0	198.4537920628525	0	0	0
231	1	1	0.0	-0.49999999999999994	199.31981746663695	0	0	0
232	1	1	0.0	0.0	200.1858428704214	0	0	0
233	1	1	0.0	-0.49999999999999994	201.05186827420584	0	0	0
234	1	1	0.0	0.0	201.9178936779903	0	0	0
235	1	1	0.0	-0.49999999999999994	202.78391908177474	0	0	0
236	1	1	0.0	0.0	203.6499444855592	0	0	0
237	1	1	0.0	-0.49999999999999994	204.51596988934364	0	0	0
238	1	1	0.0	0.0	205.38199529312809	0	0	0
239	1	1	0.0	-0.49999999999999994	206.24802069691253	0	0	0
240	1	1	0.0	0.0	207.11404610069698	0	0	0
241	1	1	0.0	-0.49999999999999994	207.98007150448143	0	0	0
242	1	1	0.0	0.0	208.84609690826588	0	0	0
243	1	1	0.0	-0.49999999999999994	209.71212231205033	0	0	0
244	1	1	0.0	0.0	210.57814771583477	0	0	0
245	1	1	0.0	-0.49999999999999994	211.44417311961922	0	0	0
246	1	1	0.0	0.0	212.31019852340367	0	0	0
247	1	1	0.0	-0.49999999999999994	213.17622392718812	0	0	0
248	1	1	0.0	0.0	214.04224933097257	0	0	0
249	1	1	0.0	-0.49999999999999994	214.90827473475701	0	0	0
250	1	1	0.0	0.0	215.77430013854146	0	0	0
251	1	1	0.0	-0.49999999999999994	216.6403255423259	0	0	0
252	1	1	0.0	0.0	217.50635094611036	0	0	0
253	1	1	0.0	-0.49999999999999994	218.3723763498948	0	0	0
254	1	1	0.0	0.0	219.23840175367926	0	0	0
255	1	1	0.0	-0.49999999999999994	220.1044271574637	0	0	0
256	1	1	0.0	0.0	220.97045256124815	0	0	0
257	1	1	0.0	-0.49999999999999994	221.8364779650326	0	0	0
258	1	1	0.0	0.0	222.70250336881705	0	0	0
259	1	1	0.0	-0.49999999999999994	223.5685287726015	0	0	0
260	1	1	0.0	0.0	224.43455417638594	0	0	0
261	1	1	0.0	-0.49999999999999994	225.3005795801704	0	0	0
262	1	1	0.0	0.0	226.16660498395484	0	0	0
263	1	1	0.0	-0.49999999999999994	227.0326303877393	0	0	0
264	1	1	0.0	0.0	227.89865579152374	0	0	0
265	1	1	0.0	-0.49999999999999994	228.76468119530819	0	0	0
266	1	1	0.0	0.0	229.63070659909263	0	0	0
267	1	1	0.0	-0.49999999999999994	230.49673200287708	0	0	0
268	1	1	0.0	0.0	231.36275740666153	0	0	0
269	1	1	0.0	-0.49999999999999994	232.22878281044598	0	0	0
270	1	1	0.0	0.0	233.09480821423043	0	0	0
271	1	1	0.0	-0.49999999999999994	233.96083361801487	0	0	0
272	1	1	0.0	0.0	234.82685902179932	0	0	0
273	1	1	0.0	-0.49999999999999994	235.69288442558377	0	0	0
274	1	1	0.0	0.0	236.55890982936822	0	0	0
275	1	1	0.0	-0.49999999999999994	237.42493523315267	0	0	0
276	1	1	0.0	0.0	238.29096063693711	0	0	0
277	1	1	0.0	-0.49999999999999994	239.15698604072156	0	0	0
278	1	1	0.0	0.0	240.023011444506	0	0	0
279	1	1	0.0	-0.49999999999999994	240.88903684829046	0	0	0
280	1	1	0.0	0.0	241.7550622520749	0	0	0
281	1	1	0.0	-0.49999999999999994	242.62108765585936	0	0	0
282	1	1	0.0	0.0	243.4871130596438	0	0	0
283	1	1	0.0	-0.49999999999999994	244.35313846342825	0	0	0
284	1	1	0.0	0.0	245.2191638672127	0	0	0
285	1	1	0.0	-0.49999999999999994	246.08518927099715	0	0	0
286	1	1	0.0	0.0	246.9512146747816	0	0	0
287	1	1	0.0	-0.49999999999999994	247.81724007856604	0	0	0
288	1	1	0.0	0.0	248.6832654823505	0	0	0
289	1	1	0.0	-0.49999999999999994	249.54929088613494	0	0	0
290	1	1	0.0	0.0	250.4153162899194	0	0	0
291	1	1	0.0	-0.49999999999999994	251.28134169370384	0	0	0
292	1	1	0.0	0.0	252.14736709748829	0	0	0
293	1	1	0.0	-0.49999999999999994	253.01339250127273	0	0	0
294	1	1	0.0	0.0	253.87941790505718	0	0	0
295	1	1	0.0	-0.49999999999999994	254.74544330884163	0	0	0
296	1	1	0.0	0.0	255.61146871262608	0	0	0
297	1	1	0.0	-0.49999999999999994	256.4774941164105	0	0	0
298	1	1	0.0	0.0	257.34351952019495	0	0	0
299	1	1	0.0	-0.49999999999999994	258.20954492397937	0	0	0
300	1	1	0.0	0.0	259.0755703277638	0	0	0
301	1	1	0.0	-0.49999999999999994	259.9415957315482	0	0	0
302	1	1	0.0	0.0	260.8076211353326	0	0	0
303	1	1	0.0	-0.49999999999999994	261.67364653911704	0	0	0
304	1	1	0.0	0.0	262.53967194290146	0	0	0
305	1	1	0.0	-0.49999999999999994	263.4056973466859	0	0	0
306	1	1	0.0	0.0	264.2717227504703	0	0	0
307	1	1	0.0	-0.49999999999999994	265.1377481542547	0	0	0
308	1	1	0.0	0.0	266.00377355803914	0	0	0
309	1	1	0.0	-0.49999999999999994	266.86979896182356	0	0	0
310	1	1	0.0	0.0	267.735824365608	0	0	0
311	1	1	0.0	-0.49999999999999994	268.6018497693924	0	0	0
312	1	1	0.0	0.0	269.4678751731768	0	0	0
313	1	1	0.0	-0.49999999999999994	270.33390057696124	0	0	0
314	1	1	0.0	0.0	271.19992598074566	0	0	0
315	1	1	0.0	-0.49999999999999994	272.0659513845301	0	0	0
316	1	1	0.0	0.0	272.9319767883145	0	0	0
317	1	1	0.0	-0.49999999999999994	273.7980021920989	0	0	0
318	1	1	0.0	0.0	274.66402759588334	0	0	0
319	1	1	0.0	-0.49999999999999994	275.53005299966776	0	0	0
320	1	1	0.0	0.0	276.3960784034522	0	0	0
321	1	1	0.0	-0.49999999999999994	277.2621038072366	0	0	0
322	1	1	0.0	0.0	278.128129211021	0	0	0
323	1	1	0.0	-0.49999999999999994	278.99415461480544	0	0	0
324	1	1	0.0	0.0	279.86018001858986	0	0	0
325	1	1	0.0	-0.49999999999999994	280.7262054223743	0	0	0
326	1	1	0.0	0.0	281.5922308261587	0	0	0
327	1	1	0.0	-0.49999999999999994	282.4582562299431	0	0	0
328	1	1	0.0	0.0	283.32428163372754	0	0	0
329	1	1	0.0	-0.49999999999999994	284.19030703751196	0	0	0
330	1	1	0.0	0.0	285.0563324412964	0	0	0
331	1	1	0.0	-0.49999999999999994	285.9223578450808	0	0	0
332	1	1	0.0	0.0	286.7883832488652	0	0	0
333	1	1	0.0	-0.49999999999999994	287.65440865264964	0	0	0
334	1	1	0.0	0.0	288.52043405643406	0	0	0
335	1	1	0.0	-0.49999999999999994	289.3864594602185	0	0	0
336	1	1	0.0	0.0	290.2524848640029	0	0	0
337	1	1	0.0	-0.49999999999999994	291.1185102677873	0	0	0
338	1	1	0.0	0.0	291.98453567157173	0	0	0
339	1	1	0.0	-0.49999999999999994	292.85056107535615	0	0	0
340	1	1	0.0	0.0	293.7165864791406	0	0	0
341	1	1	0.0	-0.49999999999999994	294.582611882925	0	0	0
342	1	1	0.0	0.0	295.4486372867094	0	0	0
343	1	1	0.0	-0.49999999999999994	296.31466269049383	0	0	0
344	1	1	0.0	0.0	297.18068809427825	0	0	0
345	1	1	0.0	-0.49999999999999994	298.0467134980627	0	0	0
346	1	1	0.0	0.0	298.9127389018471	0	0	0
347	1	1	0.0	-0.49999999999999994	299.7787643056315	0	0	0
348	1	1	0.0	0.0	300.64478970941593	0	0	0
349	1	1	0.0	-0.49999999999999994	301.51081511320035	0	0	0
350	1	1	0.0	0.0	302.37684051698477	0	0	0
351	1	1	0.0	-0.49999999999999994	303.2428659207692	0	0	0
352	1	1	0.0	0.0	304.1088913245536	0	0	0
353	1	1	0.0	-0.49999999999999994	304.97491672833803	0	0	0
354	1	1	0.0	0.0	305.84094213212245	0	0	0
355	1	1	0.0	-0.49999999999999994	306.70696753590687	0	0	0
356	1	1	0.0	0.0	307.5729929396913	0	0	0
357	1	1	0.0	-0.49999999999999994	308.4390183434757	0	0	0
358	1	1	0.0	0.0	309.30504374726013	0	0	0
359	1	1	0.0	-0.49999999999999994	310.17106915104455	0	0	0
360	1	1	0.0	0.0	311.03709455482897	0	0	0
361	1	1	0.0	-0.49999999999999994	311.9031199586134	0	0	0
362	1	1	0.0	0.0	312.7691453623978	0	0	0
363	1	1	0.0	-0.49999999999999994	313.6351707661822	0	0	0
364	1	1	0.0	0.0	314.50119616996665	0	0	0
365	1	1	0.0	-0.49999999999999994	315.36722157375107	0	0	0
366	1	1	0.0	0.0	316.2332469775355	0	0	0
367	1	1	0.0	-0.49999999999999994	317.0992723813199	0	0	0
368	1	1	0.03949728501898672	-1.4992195761971734	317.09972295921256	0	0	0
369	1	1	0.07899457003797408	-2.3647944020889726	316.60050338301534	0	0	0
370	1	1	0.11849185505696144	-3.2299186500881474	317.10050338301534	0	0	0
371	1	1	0.1579891400759488	-4.095493475979946	316.6012838068181	0	0	0
372	1	1	0.19748642509493616	-4.960617723979121	317.1012838068181	0	0	0
373	1	1	0.23698371011392352	-5.826192549870921	316.6020642306209	0	0	0
374	1	1	0.2764809951329109	-6.691316797870096	317.1020642306209	0	0	0
375	1	1	0.31597828015189827	-7.556891623761896	316.6028446544237	0	0	0
376	1	1	0.35547556517088563	-8.42201587176107	317.1028446544237	0	0	0
377	1	1	0.394972850189873	-9.28759069765287	316.60362507822646	0	0	0
378	1	1	0.43447013520886035	-10.152714945652045	317.10362507822646	0	0	0
379	1	1	0.4739674202278477	-11.018289771543845	316.60440550202924	0	0	0
380	1	1	0.5134647052468351	-11.88341401954302	317.10440550202924	0	0	0
381	1	1	0.5529619902658225	-12.74898884543482	316.605185925832	0	0	0
382	1	1	0.5924592752848099	-13.614113093433994	317.105185925832	0	0	0
383	1	1	0.6319565603037973	-14.479687919325794	316.6059663496348	0	0	0
384	1	1	0.6714538453227847	-15.344812167324969	317.1059663496348	0	0	0
385	1	1	0.7109511303417722	-16.21038699321677	316.6067467734376	0	0	0
386	1	1	0.7504484153607596	-17.075511241215942	317.1067467734376	0	0	0
387	1	1	0.789945700379747	-17.94108606710774	316.60752719724036	0	0	0
388	1	1	0.8294429853987344	-18.806210315106913	317.10752719724036	0	0	0
389	1	1	0.8689402704177218	-19.67178514099871	316.60830762104314	0	0	0
390	1	1	0.9084375554367092	-20.536909388997884	317.10830762104314	0	0	0
391	1	1	0.9479348404556966	-21.402484214889682	316.6090880448459	0	0	0
392	1	1	0.9874321254746841	-22.267608462888855	317.1090880448459	0	0	0
393	1	1	1.0269294104936715	-23.133183288780653	316.6098684686487	0	0	0
394	1	1	1.066426695512659	-23.998307536779826	317.1098684686487	0	0	0
395	1	1	1.1059239805316463	-24.863882362671625	316.6106488924515	0	0	0
396	1	1	1.1454212655506337	-25.729006610670798	317.1106488924515	0	0	0
397	1	1	1.1849185505696211	-26.594581436562596	316.61142931625426	0	0	0
398	1	1	1.2244158355886086	-27.45970568456177	317.11142931625426	0	0	0
399	1	1	1.263913120607596	-28.325280510453567	316.61220974005704	0	0	0
400	1	1	1.3034104056265834	-29.19040475845274	317.11220974005704	0	0	0
401	1	1	1.3429076906455708	-30.055979584344538	316.6129901638598	0	0	0
402	1	1	1.3824049756645582	-30.92110383234371	317.1129901638598	0	0	0
403	1	1	1.4219022606835456	-31.78667865823551	316.6137705876626	0	0	0
404	1	1	1.461399545702533	-32.651802906234686	317.1137705876626	0	0	0
405	1	1	1.5008968307215205	-33.517377732126484	316.6145510114654	0	0	0
406	1	1	1.5403941157405079	-34.38250198012566	317.1145510114654	0	0	0
407	1	1	1.5798914007594953	-35.24807680601746	316.61533143526816	0	0	0
408	1	1	1.6193886857784827	-36.113201054016635	317.11533143526816	0	0	0
409	1	1	1.6588859707974701	-36.97877587990843	316.61611185907094	0	0	0
410	1	1	1.6983832558164575	-37.84390012790761	317.11611185907094	0	0	0
411	1	1	1.737880540835445	-38.70947495379941	316.6168922828737	0	0	0
412	1	1	1.7773778258544324	-39.574599201798584	317.1168922828737	0	0	0
413	1	1	1.8168751108734198	-40.44017402769038	316.6176727066765	0	0	0
414	1	1	1.8563723958924072	-41.30529827568956	317.1176727066765	0	0	0
415	1	1	1.8958696809113946	-42.17087310158136	316.6184531304793	0	0	0
416	1	1	1.935366965930382	-43.03599734958053	317.1184531304793	0	0	0
417	1	1	1.9748642509493695	-43.90157217547233	316.61923355428206	0	0	0
418	1	1	2.014361535968357	-44.76669642347151	317.11923355428206	0	0	0
419	1	1	2.0538588209873443	-45.632271249363306	316.62001397808484	0	0	0
420	1	1	2.0933561060063317	-46.49739549736248	317.12001397808484	0	0	0
421	1	1	2.132853391025319	-47.36297032325428	316.6207944018876	0	0	0
422	1	1	2.1723506760443065	-48.22809457125346	317.1207944018876	0	0	0
423	1	1	2.211847961063294	-49.093669397145256	316.6215748256904	0	0	0
424	1	1	2.2513452460822814	-49.95879364514443	317.1215748256904	0	0	0
425	1	1	2.290842531101269	-50.82436847103623	316.6223552494932	0	0	0
426	1	1	2.330339816120256	-51.68949271903541	317.1223552494932	0	0	0
427	1	1	2.3698371011392436	-52.555067544927205	316.62313567329596	0	0	0
428	1	1	2.409334386158231	-53.42019179292638	317.12313567329596	0	0	0
429	1	1	2.4488316711772184	-54.28576661881818	316.62391609709874	0	0	0
430	1	1	2.488328956196206	-55.150890866817356	317.12391609709874	0	0	0
431	1	1	2.5278262412151933	-56.016465692709154	316.6246965209015	0	0	0
432	1	1	2.5673235262341807	-56.88158994070833	317.1246965209015	0	0	0
433	1	1	2.606820811253168	-57.74716476660013	316.6254769447043	0	0	0
434	1	1	2.6463180962721555	-58.612289014599305	317.1254769447043	0	0	0
435	1	1	2.685815381291143	-59.4778638404911	316.6262573685071	0	0	0
436	1	1	2.7253126663101304	-60.34298808849028	317.1262573685071	0	0	0
437	1	1	2.7648099513291178	-61.20856291438208	316.62703779230986	0	0	0
438	1	1	2.804307236348105	-62.073687162381255	317.12703779230986	0	0	0
439	1	1	2.8438045213670926	-62.93926198827305	316.62781821611264	0	0	0
440	1	1	2.88330180638608	-63.80438623627223	317.12781821611264	0	0	0
441	1	1	2.9227990914050674	-64.66996106216403	316.6285986399154	0	0	0
442	1	1	2.962296376424055	-65.53508531016321	317.1285986399154	0	0	0
443	1	1	3.0017936614430423	-66.40066013605501	316.6293790637182	0	0	0
444	1	1	3.0412909464620297	-67.26578438405419	317.1293790637182	0	0	0
445	1	1	3.080788231481017	-68.13135920994598	316.630159487521	0	0	0
446	1	1	3.1202855165000045	-68.99648345794516	317.130159487521	0	0	0
447	1	1	3.159782801518992	-69.86205828383696	316.63093991132376	0	0	0
448	1	1	3.1992800865379794	-70.72718253183614	317.13093991132376	0	0	0
449	1	1	3.2387773715569668	-71.59275735772793	316.63172033512654	0	0	0
450	1	1	3.278274656575954	-72.45788160572711	317.13172033512654	0	0	0
451	1	1	3.3177719415949416	-73.32345643161891	316.6325007589293	0	0	0
452	1	1	3.357269226613929	-74.18858067961808	317.1325007589293	0	0	0
453	1	1	3.3967665116329164	-75.05415550550988	316.6332811827321	0	0	0
454	1	1	3.436263796651904	-75.91927975350906	317.1332811827321	0	0	0
455	1	1	3.4757610816708913	-76.78485457940086	316.6340616065349	0	0	0
456	1	1	3.5152583666898787	-77.64997882740003	317.1340616065349	0	0	0
457	1	1	3.554755651708866	-78.51555365329183	316.63484203033767	0	0	0
458	1	1	3.5942529367278535	-79.38067790129101	317.13484203033767	0	0	0
459	1	1	3.633750221746841	-80.2462527271828	316.63562245414045	0	0	0
460	1	1	3.6732475067658283	-81.11137697518198	317.13562245414045	0	0	0
461	1	1	3.7127447917848158	-81.97695180107378	316.6364028779432	0	0	0
462	1	1	3.752242076803803	-82.84207604907296	317.1364028779432	0	0	0
463	1	1	3.7917393618227906	-83.70765087496476	316.637183301746	0	0	0
464	1	1	3.831236646841778	-84.57277512296393	317.137183301746	0	0	0
465	1	1	3.8707339318607654	-85.43834994885573	316.6379637255488	0	0	0
466	1	1	3.910231216879753	-86.3034741968549	317.1379637255488	0	0	0
467	1	1	3.9497285018987403	-87.1690490227467	316.63874414935157	0	0	0
468	1	1	3.9892257869177277	-88.03417327074588	317.13874414935157	0	0	0
469	1	1	4.028723071936715	-88.89974809663768	316.63952457315435	0	0	0
470	1	1	4.068220356955702	-89.76487234463686	317.13952457315435	0	0	0
471	1	1	4.107717641974689	-90.63044717052865	316.6403049969571	0	0	0
472	1	1	4.1472149269936756	-91.49557141852783	317.1403049969571	0	0	0
473	1	1	4.1867122120126625	-92.36114624441963	316.6410854207599	0	0	0
474	1	1	4.2262094970316495	-93.2262704924188	317.1410854207599	0	0	0
475	1	1	4.2657067820506365	-94.0918453183106	316.6418658445627	0	0	0
476	1	1	4.305204067069623	-94.95696956630978	317.1418658445627	0	0	0
477	1	1	4.34470135208861	-95.82254439220158	316.64264626836547	0	0	0
478	1	1	4.384198637107597	-96.68766864020076	317.14264626836547	0	0	0
479	1	1	4.423695922126584	-97.55324346609255	316.64342669216825	0	0	0
480	1	1	4.463193207145571	-98.41836771409173	317.14342669216825	0	0	0
481	1	1	4.502690492164558	-99.28394253998353	316.644207115971	0	0	0
482	1	1	4.542187777183545	-100.1490667879827	317.144207115971	0	0	0
483	1	1	4.581685062202532	-101.0146416138745	316.6449875397738	0	0	0
484	1	1	4.621182347221519	-101.87976586187368	317.1449875397738	0	0	0
485	1	1	4.660679632240506	-102.74534068776548	316.6457679635766	0	0	0
486	1	1	4.700176917259493	-103.61046493576465	317.1457679635766	0	0	0
487	1	1	4.73967420227848	-104.47603976165645	316.64654838737937	0	0	0
488	1	1	4.779171487297467	-105.34116400965563	317.14654838737937	0	0	0
489	1	1	4.818668772316454	-106.20673883554743	316.64732881118215	0	0	0
490	1	1	4.858166057335441	-107.0718630835466	317.14732881118215	0	0	0
491	1	1	4.897663342354428	-107.9374379094384	316.64810923498493	0	0	0
492	1	1	4.937160627373415	-108.80256215743758	317.14810923498493	0	0	0
493	1	1	4.976657912392402	-109.66813698332938	316.6488896587877	0	0	0
494	1	1	5.016155197411389	-110.53326123132855	317.1488896587877	0	0	0
495	1	1	5.055652482430376	-111.39883605722035	316.6496700825905	0	0	0
496	1	1	5.095149767449363	-112.26396030521953	317.1496700825905	0	0	0
497	1	1	5.13464705246835	-113.12953513111133	316.65045050639327	0	0	0
498	1	1	5.174144337487337	-113.9946593791105	317.15045050639327	0	0	0
499	1	1	5.213641622506324	-114.8602342050023	316.65123093019605	0	0	0
500	1	1	5.253138907525311	-115.72535845300148	317.15123093019605	0	0	0
501	1	1	5.292636192544298	-116.59093327889327	316.65201135399883	0	0	0
502	1	1	5.332133477563285	-117.45605752689245	317.15201135399883	0	0	0
503	1	1	5.371630762582272	-118.32163235278425	316.6527917778016	0	0	0
504	1	1	5.411128047601259	-119.18675660078343	317.1527917778016	0	0	0
505	1	1	5.450625332620246	-120.05233142667522	316.6535722016044	0	0	0
506	1	1	5.490122617639233	-120.9174556746744	317.1535722016044	0	0	0
507	1	1	5.52961990265822	-121.7830305005662	316.65435262540717	0	0	0
508	1	1	5.5691171876772065	-122.64815474856537	317.15435262540717	0	0	0
509	1	1	5.6086144726961935	-123.51372957445717	316.65513304920995	0	0	0
510	1	1	5.6481117577151805	-124.37885382245635	317.15513304920995	0	0	0
511	1	1	5.6876090427341675	-125.24442864834815	316.65591347301273	0	0	0
512	1	1	5.727106327753154	-126.10955289634732	317.15591347301273	0	0	0
513	1	1	5.766603612772141	-126.97512772223912	316.6566938968155	0	0	0
514	1	1	5.806100897791128	-127.8402519702383	317.1566938968155	0	0	0
515	1	1	5.845598182810115	-128.7058267961301	316.6574743206183	0	0	0
516	1	1	5.885095467829102	-129.5709510441293	317.1574743206183	0	0	0
517	1	1	5.924592752848089	-130.4365258700211	316.6582547444211	0	0	0
518	1	1	5.964090037867076	-131.30165011802026	317.1582547444211	0	0	0
519	1	1	6.003587322886063	-132.16722494391206	316.65903516822385	0	0	0
520	1	1	6.04308460790505	-133.03234919191124	317.15903516822385	0	0	0
521	1	1	6.082581892924037	-133.89792401780304	316.65981559202663	0	0	0
522	1	1	6.122079177943024	-134.7630482658022	317.15981559202663	0	0	0
523	1	1	6.161576462962011	-135.628623091694	316.6605960158294	0	0	0
524	1	1	6.201073747980998	-136.4937473396932	317.1605960158294	0	0	0
525	1	1	6.240571032999985	-137.35932216558498	316.6613764396322	0	0	0
526	1	1	6.280068318018972	-138.22444641358416	317.1613764396322	0	0	0
527	1	1	6.319565603037959	-139.09002123947596	316.662156863435	0	0	0
528	1	1	6.359062888056946	-139.95514548747514	317.162156863435	0	0	0
529	1	1	6.398560173075933	-140.82072031336693	316.66293728723775	0	0	0
530	1	1	6.43805745809492	-141.6858445613661	317.16293728723775	0	0	0
531	1	1	6.477554743113907	-142.5514193872579	316.66371771104053	0	0	0
532	1	1	6.517052028132894	-143.41654363525709	317.16371771104053	0	0	0
533	1	1	6.556549313151881	-144.28211846114888	316.6644981348433	0	0	0
534	1	1	6.596046598170868	-145.14724270914806	317.1644981348433	0	0	0
535	1	1	6.635543883189855	-146.01281753503986	316.6652785586461	0	0	0
536	1	1	6.675041168208842	-146.87794178303903	317.1652785586461	0	0	0
537	1	1	6.714538453227829	-147.74351660893083	316.6660589824489	0	0	0