ITEM: TIMESTEP
0
ITEM: NUMBER OF ATOMS
401
ITEM: BOX BOUNDS pp pp pp
-1.0000000000000000e+03 1.0000000000000000e+03
-1.0000000000000000e+03 1.0000000000000000e+03
-1.0000000000000000e+03 1.0000000000000000e+03
ITEM: ATOMS id x y z ix iy iz
1 0.00000 0.00000 0.00000 0 0 0
2 0.00000 0.00000 1.00000 0 0 0
3 0.00000 -0.50000 1.86603 0 0 0
4 0.00000 0.00000 2.73205 0 0 0
5 0.00000 -0.50000 3.59808 0 0 0
6 0.00000 0.00000 4.46410 0 0 0
7 0.00000 -0.50000 5.33013 0 0 0
8 0.00000 0.00000 6.19615 0 0 0
9 0.00000 -0.50000 7.06218 0 0 0
10 0.00000 0.00000 7.92820 0 0 0
11 0.00000 -0.50000 8.79423 0 0 0
12 0.00000 0.00000 9.66025 0 0 0
13 0.00000 -0.50000 10.52628 0 0 0
14 0.00000 0.00000 11.39230 0 0 0
15 0.00000 -0.50000 12.25833 0 0 0
16 0.00000 0.00000 13.12436 0 0 0
17 0.00000 -0.50000 13.99038 0 0 0
18 0.00000 0.00000 14.85641 0 0 0
19 0.00000 -0.50000 15.72243 0 0 0
20 0.00000 0.00000 16.58846 0 0 0
21 0.00000 -0.50000 17.45448 0 0 0
22 0.00000 0.00000 18.32051 0 0 0
23 0.00000 -0.50000 19.18653 0 0 0
24 0.00000 0.00000 20.05256 0 0 0
25 0.00000 -0.50000 20.91858 0 0 0
26 0.00000 0.00000 21.78461 0 0 0
27 0.00000 -0.50000 22.65064 0 0 0
28 0.00000 0.00000 23.51666 0 0 0
29 0.00000 -0.50000 24.38269 0 0 0
30 0.00000 0.00000 25.24871 0 0 0
31 0.00000 -0.50000 26.11474 0 0 0
32 0.00000 0.00000 26.98076 0 0 0
33 0.00000 -0.50000 27.84679 0 0 0
34 0.00000 0.00000 28.71281 0 0 0
35 0.00000 -0.50000 29.57884 0 0 0
36 0.00000 0.00000 30.44486 0 0 0
37 0.00000 -0.50000 31.31089 0 0 0
38 0.00000 0.00000 32.17691 0 0 0
39 0.00000 -0.50000 33.04294 0 0 0
40 0.00000 0.00000 33.90897 0 0 0
41 0.00000 -0.50000 34.77499 0 0 0
42 0.00000 0.00000 35.64102 0 0 0
43 0.00000 -0.50000 36.50704 0 0 0
44 0.00000 0.00000 37.37307 0 0 0
45 0.00000 -0.50000 38.23909 0 0 0
46 0.00000 0.00000 39.10512 0 0 0
47 0.00000 -0.50000 39.97114 0 0 0
48 0.00000 0.00000 40.83717 0 0 0
49 0.00000 -0.50000 41.70319 0 0 0
50 0.00000 0.00000 42.56922 0 0 0
51 0.00000 -0.50000 43.43524 0 0 0
52 0.00000 0.00000 44.30127 0 0 0
53 0.00000 -0.50000 45.16730 0 0 0
54 0.00000 0.00000 46.03332 0 0 0
55 0.00000 -0.50000 46.89935 0 0 0
56 0.00000 0.00000 47.76537 0 0 0
57 0.00000 -0.50000 48.63140 0 0 0
58 0.00000 0.00000 49.49742 0 0 0
59 0.00000 -0.50000 50.36345 0 0 0
60 0.00000 0.00000 51.22947 0 0 0
61 0.00000 -0.50000 52.09550 0 0 0
62 0.00000 0.00000 52.96152 0 0 0
63 0.00000 -0.50000 53.82755 0 0 0
64 0.00000 0.00000 54.69358 0 0 0
65 0.00000 -0.50000 55.55960 0 0 0
66 0.00000 0.00000 56.42563 0 0 0
67 0.00000 -0.50000 57.29165 0 0 0
68 0.00000 0.00000 58.15768 0 0 0
69 0.00000 -0.50000 59.02370 0 0 0
70 0.00000 0.00000 59.88973 0 0 0
71 0.00000 -0.50000 60.75575 0 0 0
72 0.00000 0.00000 61.62178 0 0 0
73 0.00000 -0.50000 62.48780 0 0 0
74 0.00000 0.00000 63.35383 0 0 0
75 0.00000 -0.50000 64.21985 0 0 0
76 0.00000 0.00000 65.08588 0 0 0
77 0.00000 -0.50000 65.95191 0 0 0
78 0.00000 0.00000 66.81793 0 0 0
79 0.00000 -0.50000 67.68396 0 0 0
80 0.00000 0.00000 68.54998 0 0 0
81 0.00000 -0.50000 69.41601 0 0 0
82 0.59683 -0.20654 70.16279 0 0 0
83 1.19365 -0.32579 70.95624 0 0 0
84 1.79048 0.30175 71.45624 0 0 0
85 2.38731 0.18250 72.24970 0 0 0
86 2.98414 0.81003 72.74970 0 0 0
87 3.58096 0.69078 73.54316 0 0 0
88 4.17779 1.31832 74.04316 0 0 0
89 4.77462 1.19907 74.83662 0 0 0
90 5.37145 1.82660 75.33662 0 0 0
91 5.96827 1.70736 76.13008 0 0 0
92 6.56510 2.33489 76.63008 0 0 0
93 7.16193 2.21564 77.42354 0 0 0
94 7.75876 2.84318 77.92354 0 0 0
95 8.35558 2.72393 78.71700 0 0 0
96 8.95241 3.35146 79.21700 0 0 0
97 9.54924 3.23221 80.01046 0 0 0
98 10.14607 3.85975 80.51046 0 0 0
99 10.74289 3.74050 81.30392 0 0 0
100 11.33972 4.36803 81.80392 0 0 0
101 11.93655 4.24879 82.59738 0 0 0
102 12.53338 4.87632 83.09738 0 0 0
103 13.13020 4.75707 83.89084 0 0 0
104 13.72703 5.38461 84.39084 0 0 0
105 14.32386 5.26536 85.18429 0 0 0
106 14.92069 5.89289 85.68429 0 0 0
107 15.51751 5.77365 86.47775 0 0 0
108 16.11434 6.40118 86.97775 0 0 0
109 16.71117 6.28193 87.77121 0 0 0
110 17.30799 6.90946 88.27121 0 0 0
111 17.90482 6.79022 89.06467 0 0 0
112 18.50165 7.41775 89.56467 0 0 0
113 19.09848 7.29850 90.35813 0 0 0
114 19.69530 7.92604 90.85813 0 0 0
115 20.29213 7.80679 91.65159 0 0 0
116 20.88896 8.43432 92.15159 0 0 0
117 21.48579 8.31508 92.94505 0 0 0
118 22.08261 8.94261 93.44505 0 0 0
119 22.67944 8.82336 94.23851 0 0 0
120 23.27627 9.45089 94.73851 0 0 0
121 23.87310 9.33165 95.53197 0 0 0
122 24.46992 9.95918 96.03197 0 0 0
123 25.06675 9.83993 96.82543 0 0 0
124 25.66358 10.46747 97.32543 0 0 0
125 26.26041 10.34822 98.11889 0 0 0
126 26.85723 10.97575 98.61889 0 0 0
127 27.45406 10.85651 99.41234 0 0 0
128 28.05089 11.48404 99.91234 0 0 0
129 28.64772 11.36479 100.70580 0 0 0
130 29.24454 11.99232 101.20580 0 0 0
131 29.84137 11.87308 101.99926 0 0 0
132 30.43820 12.50061 102.49926 0 0 0
133 31.03503 12.38136 103.29272 0 0 0
134 31.63185 13.00890 103.79272 0 0 0
135 32.22868 12.88965 104.58618 0 0 0
136 32.82551 13.51718 105.08618 0 0 0
137 33.42234 13.39794 105.87964 0 0 0
138 34.01916 14.02547 106.37964 0 0 0
139 34.61599 13.90622 107.17310 0 0 0
140 35.21282 14.53375 107.67310 0 0 0
141 35.80964 14.41451 108.46656 0 0 0
142 36.40647 15.04204 108.96656 0 0 0
143 37.00330 14.92279 109.76002 0 0 0
144 37.60013 15.55033 110.26002 0 0 0
145 38.19695 15.43108 111.05348 0 0 0
146 38.79378 16.05861 111.55348 0 0 0
147 39.39061 15.93937 112.34694 0 0 0
148 39.98744 16.56690 112.84694 0 0 0
149 40.58426 16.44765 113.64039 0 0 0
150 41.18109 17.07518 114.14039 0 0 0
151 41.77792 16.95594 114.93385 0 0 0
152 42.37475 17.58347 115.43385 0 0 0
153 42.97157 17.46422 116.22731 0 0 0
154 43.56840 18.09176 116.72731 0 0 0
155 44.16523 17.97251 117.52077 0 0 0
156 44.76206 18.60004 118.02077 0 0 0
157 45.35888 18.48080 118.81423 0 0 0
158 45.95571 19.10833 119.31423 0 0 0
159 46.55254 18.98908 120.10769 0 0 0
160 47.14937 19.61662 120.60769 0 0 0
161 47.74619 19.49737 121.40115 0 0 0
162 -0.59683 -1.29346 69.53525 0 0 0
163 -1.19365 -2.04024 69.24179 0 0 0
164 -1.79048 -2.66777 69.74179 0 0 0
165 -2.38731 -3.41455 69.44834 0 0 0
166 -2.98414 -4.04208 69.94834 0 0 0
167 -3.58096 -4.78886 69.65488 0 0 0
168 -4.17779 -5.41639 70.15488 0 0 0
169 -4.77462 -6.16317 69.86142 0 0 0
170 -5.37145 -6.79070 70.36142 0 0 0
171 -5.96827 -7.53748 70.06796 0 0 0
172 -6.56510 -8.16502 70.56796 0 0 0
173 -7.16193 -8.91180 70.27450 0 0 0
174 -7.75876 -9.53933 70.77450 0 0 0
175 -8.35558 -10.28611 70.48104 0 0 0
176 -8.95241 -10.91364 70.98104 0 0 0
177 -9.54924 -11.66042 70.68758 0 0 0
178 -10.14607 -12.28795 71.18758 0 0 0
179 -10.74289 -13.03473 70.89412 0 0 0
180 -11.33972 -13.66226 71.39412 0 0 0
181 -11.93655 -14.40904 71.10066 0 0 0
182 -12.53338 -15.03657 71.60066 0 0 0
183 -13.13020 -15.78335 71.30720 0 0 0
184 -13.72703 -16.41089 71.80720 0 0 0
185 -14.32386 -17.15766 71.51374 0 0 0
186 -14.92069 -17.78520 72.01374 0 0 0
187 -15.51751 -18.53198 71.72029 0 0 0
188 -16.11434 -19.15951 72.22029 0 0 0
189 -16.71117 -19.90629 71.92683 0 0 0
190 -17.30799 -20.53382 72.42683 0 0 0
191 -17.90482 -21.28060 72.13337 0 0 0
192 -18.50165 -21.90813 72.63337 0 0 0
193 -19.09848 -22.65491 72.33991 0 0 0
194 -19.69530 -23.28244 72.83991 0 0 0
195 -20.29213 -24.02922 72.54645 0 0 0
196 -20.88896 -24.65675 73.04645 0 0 0
197 -21.48579 -25.40353 72.75299 0 0 0
198 -22.08261 -26.03107 73.25299 0 0 0
199 -22.67944 -26.77784 72.95953 0 0 0
200 -23.27627 -27.40538 73.45953 0 0 0
201 -23.87310 -28.15216 73.16607 0 0 0
202 -24.46992 -28.77969 73.66607 0 0 0
203 -25.06675 -29.52647 73.37261 0 0 0
204 -25.66358 -30.15400 73.87261 0 0 0
205 -26.26041 -30.90078 73.57915 0 0 0
206 -26.85723 -31.52831 74.07915 0 0 0
207 -27.45406 -32.27509 73.78569 0 0 0
208 -28.05089 -32.90262 74.28569 0 0 0
209 -28.64772 -33.64940 73.99224 0 0 0
210 -29.24454 -34.27693 74.49224 0 0 0
211 -29.84137 -35.02371 74.19878 0 0 0
212 -30.43820 -35.65125 74.69878 0 0 0
213 -31.03503 -36.39802 74.40532 0 0 0
214 -31.63185 -37.02556 74.90532 0 0 0
215 -32.22868 -37.77234 74.61186 0 0 0
216 -32.82551 -38.39987 75.11186 0 0 0
217 -33.42234 -39.14665 74.81840 0 0 0
218 -34.01916 -39.77418 75.31840 0 0 0
219 -34.61599 -40.52096 75.02494 0 0 0
220 -35.21282 -41.14849 75.52494 0 0 0
221 -35.80964 -41.89527 75.23148 0 0 0
222 -36.40647 -42.52280 75.73148 0 0 0
223 -37.00330 -43.26958 75.43802 0 0 0
224 -37.60013 -43.89711 75.93802 0 0 0
225 -38.19695 -44.64389 75.64456 0 0 0
226 -38.79378 -45.27143 76.14456 0 0 0
227 -39.39061 -46.01820 75.85110 0 0 0
228 -39.98744 -46.64574 76.35110 0 0 0
229 -40.58426 -47.39252 76.05764 0 0 0
230 -41.18109 -48.02005 76.55764 0 0 0
231 -41.77792 -48.76683 76.26419 0 0 0
232 -42.37475 -49.39436 76.76419 0 0 0
233 -42.97157 -50.14114 76.47073 0 0 0
234 -43.56840 -50.76867 76.97073 0 0 0
235 -44.16523 -51.51545 76.67727 0 0 0
236 -44.76206 -52.14298 77.17727 0 0 0
237 -45.35888 -52.88976 76.88381 0 0 0
238 -45.95571 -53.51729 77.38381 0 0 0
239 -46.55254 -54.26407 77.09035 0 0 0
240 -47.14937 -54.89161 77.59035 0 0 0
241 -47.74619 -55.63838 77.29689 0 0 0
242 0.72461 -1.09683 69.07143 0 0 0
243 1.44922 -1.44141 68.47460 0 0 0
244 2.17384 -2.13056 68.47460 0 0 0
245 2.89845 -2.47514 67.87777 0 0 0
246 3.62306 -3.16430 67.87777 0 0 0
247 4.34767 -3.50888 67.28095 0 0 0
248 5.07228 -4.19803 67.28095 0 0 0
249 5.79690 -4.54261 66.68412 0 0 0
250 6.52151 -5.23177 66.68412 0 0 0
251 7.24612 -5.57635 66.08729 0 0 0
252 7.97073 -6.26550 66.08729 0 0 0
253 8.69535 -6.61008 65.49046 0 0 0
254 9.41996 -7.29924 65.49046 0 0 0
255 10.14457 -7.64382 64.89364 0 0 0
256 10.86918 -8.33298 64.89364 0 0 0
257 11.59379 -8.67755 64.29681 0 0 0
258 12.31841 -9.36671 64.29681 0 0 0
259 13.04302 -9.71129 63.69998 0 0 0
260 13.76763 -10.40045 63.69998 0 0 0
261 14.49224 -10.74502 63.10315 0 0 0
262 15.21685 -11.43418 63.10315 0 0 0
263 15.94147 -11.77876 62.50633 0 0 0
264 16.66608 -12.46792 62.50633 0 0 0
265 17.39069 -12.81250 61.90950 0 0 0
266 18.11530 -13.50165 61.90950 0 0 0
267 18.83992 -13.84623 61.31267 0 0 0
268 19.56453 -14.53539 61.31267 0 0 0
269 20.28914 -14.87997 60.71584 0 0 0
270 21.01375 -15.56912 60.71584 0 0 0
271 21.73836 -15.91370 60.11902 0 0 0
272 22.46298 -16.60286 60.11902 0 0 0
273 23.18759 -16.94744 59.52219 0 0 0
274 23.91220 -17.63659 59.52219 0 0 0
275 24.63681 -17.98117 58.92536 0 0 0
276 25.36142 -18.67033 58.92536 0 0 0
277 26.08604 -19.01491 58.32854 0 0 0
278 26.81065 -19.70406 58.32854 0 0 0
279 27.53526 -20.04864 57.73171 0 0 0
280 28.25987 -20.73780 57.73171 0 0 0
281 28.98448 -21.08238 57.13488 0 0 0
282 29.70910 -21.77154 57.13488 0 0 0
283 30.43371 -22.11611 56.53805 0 0 0
284 31.15832 -22.80527 56.53805 0 0 0
285 31.88293 -23.14985 55.94123 0 0 0
286 32.60755 -23.83901 55.94123 0 0 0
287 33.33216 -24.18358 55.34440 0 0 0
288 34.05677 -24.87274 55.34440 0 0 0
289 34.78138 -25.21732 54.74757 0 0 0
290 35.50599 -25.90648 54.74757 0 0 0
291 36.23061 -26.25106 54.15074 0 0 0
292 36.95522 -26.94021 54.15074 0 0 0
293 37.67983 -27.28479 53.55392 0 0 0
294 38.40444 -27.97395 53.55392 0 0 0
295 39.12905 -28.31853 52.95709 0 0 0
296 39.85367 -29.00768 52.95709 0 0 0
297 40.57828 -29.35226 52.36026 0 0 0
298 41.30289 -30.04142 52.36026 0 0 0
299 42.02750 -30.38600 51.76343 0 0 0
300 42.75211 -31.07515 51.76343 0 0 0
301 43.47673 -31.41973 51.16661 0 0 0
302 44.20134 -32.10889 51.16661 0 0 0
303 44.92595 -32.45347 50.56978 0 0 0
304 45.65056 -33.14262 50.56978 0 0 0
305 46.37518 -33.48720 49.97295 0 0 0
306 47.09979 -34.17636 49.97295 0 0 0
307 47.82440 -34.52094 49.37612 0 0 0
308 48.54901 -35.21010 49.37612 0 0 0
309 49.27362 -35.55467 48.77930 0 0 0
310 49.99824 -36.24383 48.77930 0 0 0
311 50.72285 -36.58841 48.18247 0 0 0
312 51.44746 -37.27757 48.18247 0 0 0
313 52.17207 -37.62214 47.58564 0 0 0
314 52.89668 -38.31130 47.58564 0 0 0
315 53.62130 -38.65588 46.98881 0 0 0
316 54.34591 -39.34504 46.98881 0 0 0
317 55.07052 -39.68962 46.39199 0 0 0
318 55.79513 -40.37877 46.39199 0 0 0
319 56.51975 -40.72335 45.79516 0 0 0
320 57.24436 -41.41251 45.79516 0 0 0
321 57.96897 -41.75709 45.19833 0 0 0
322 -0.72461 0.09683 69.76059 0 0 0
323 -1.44922 0.44141 70.35741 0 0 0
324 -2.17384 1.13056 70.35741 0 0 0
325 -2.89845 1.47514 70.95424 0 0 0
326 -3.62306 2.16430 70.95424 0 0 0
327 -4.34767 2.50888 71.55107 0 0 0
328 -5.07228 3.19803 71.55107 0 0 0
329 -5.79690 3.54261 72.14790 0 0 0
330 -6.52151 4.23177 72.14790 0 0 0
331 -7.24612 4.57635 72.74472 0 0 0
332 -7.97073 5.26550 72.74472 0 0 0
333 -8.69535 5.61008 73.34155 0 0 0
334 -9.41996 6.29924 73.34155 0 0 0
335 -10.14457 6.64382 73.93838 0 0 0
336 -10.86918 7.33298 73.93838 0 0 0
337 -11.59379 7.67755 74.53520 0 0 0
338 -12.31841 8.36671 74.53520 0 0 0
339 -13.04302 8.71129 75.13203 0 0 0
340 -13.76763 9.40045 75.13203 0 0 0
341 -14.49224 9.74502 75.72886 0 0 0
342 -15.21685 10.43418 75.72886 0 0 0
343 -15.94147 10.77876 76.32569 0 0 0
344 -16.66608 11.46792 76.32569 0 0 0
345 -17.39069 11.81250 76.92251 0 0 0
346 -18.11530 12.50165 76.92251 0 0 0
347 -18.83992 12.84623 77.51934 0 0 0
348 -19.56453 13.53539 77.51934 0 0 0
349 -20.28914 13.87997 78.11617 0 0 0
350 -21.01375 14.56912 78.11617 0 0 0
351 -21.73836 14.91370 78.71300 0 0 0
352 -22.46298 15.60286 78.71300 0 0 0
353 -23.18759 15.94744 79.30982 0 0 0
354 -23.91220 16.63659 79.30982 0 0 0
355 -24.63681 16.98117 79.90665 0 0 0
356 -25.36142 17.67033 79.90665 0 0 0
357 -26.08604 18.01491 80.50348 0 0 0
358 -26.81065 18.70406 80.50348 0 0 0
359 -27.53526 19.04864 81.10031 0 0 0
360 -28.25987 19.73780 81.10031 0 0 0
361 -28.98448 20.08238 81.69713 0 0 0
362 -29.70910 20.77154 81.69713 0 0 0
363 -30.43371 21.11611 82.29396 0 0 0
364 -31.15832 21.80527 82.29396 0 0 0
365 -31.88293 22.14985 82.89079 0 0 0
366 -32.60755 22.83901 82.89079 0 0 0
367 -33.33216 23.18358 83.48762 0 0 0
368 -34.05677 23.87274 83.48762 0 0 0
369 -34.78138 24.21732 84.08444 0 0 0
370 -35.50599 24.90648 84.08444 0 0 0
371 -36.23061 25.25106 84.68127 0 0 0
372 -36.95522 25.94021 84.68127 0 0 0
373 -37.67983 26.28479 85.27810 0 0 0
374 -38.40444 26.97395 85.27810 0 0 0
375 -39.12905 27.31853 85.87493 0 0 0
376 -39.85367 28.00768 85.87493 0 0 0
377 -40.57828 28.35226 86.47175 0 0 0
378 -41.30289 29.04142 86.47175 0 0 0
379 -42.02750 29.38600 87.06858 0 0 0
380 -42.75211 30.07515 87.06858 0 0 0
381 -43.47673 30.41973 87.66541 0 0 0
382 -44.20134 31.10889 87.66541 0 0 0
383 -44.92595 31.45347 88.26224 0 0 0
384 -45.65056 32.14262 88.26224 0 0 0
385 -46.37518 32.48720 88.85906 0 0 0
386 -47.09979 33.17636 88.85906 0 0 0
387 -47.82440 33.52094 89.45589 0 0 0
388 -48.54901 34.21010 89.45589 0 0 0
389 -49.27362 34.55467 90.05272 0 0 0
390 -49.99824 35.24383 90.05272 0 0 0
391 -50.72285 35.58841 90.64954 0 0 0
392 -51.44746 36.27757 90.64954 0 0 0
393 -52.17207 36.62214 91.24637 0 0 0
394 -52.89668 37.31130 91.24637 0 0 0
395 -53.62130 37.65588 91.84320 0 0 0
396 -54.34591 38.34504 91.84320 0 0 0
397 -55.07052 38.68962 92.44003 0 0 0
398 -55.79513 39.37877 92.44003 0 0 0
399 -56.51975 39.72335 93.03685 0 0 0
400 -57.24436 40.41251 93.03685 0 0 0
401 -57.96897 40.75709 93.63368 0 0 0
ITEM: TIMESTEP
1000
ITEM: NUMBER OF ATOMS
401
ITEM: BOX BOUNDS pp pp pp
-1.0000000000000000e+03 1.0000000000000000e+03
-1.0000000000000000e+03 1.0000000000000000e+03
-1.0000000000000000e+03 1.0000000000000000e+03
ITEM: ATOMS id x y z ix iy iz
1 0.46340 1.20642 4.00767 0 0 0
2 0.72227 0.46415 4.63774 0 0 0
3 0.67852 0.31446 5.58873 0 0 0
4 0.28297 -0.33949 6.37827 0 0 0
5 0.39198 0.49773 6.90848 0 0 0
6 1.31048 0.46396 7.36184 0 0 0
7 0.75622 0.20586 8.08153 0 0 0
8 0.69655 -0.27675 8.89604 0 0 0
9 0.09944 0.42519 9.07660 0 0 0
10 0.45661 1.19500 9.59052 0 0 0
11 1.05522 0.61681 10.14416 0 0 0
12 1.21476 0.19749 10.93694 0 0 0
13 1.03656 -0.28986 11.80303 0 0 0
14 0.84766 0.54432 12.25811 0 0 0
15 0.39394 0.93254 13.07646 0 0 0
16 0.44412 1.58506 13.84662 0 0 0
17 0.61915 1.13375 14.78941 0 0 0
18 0.53788 1.19119 15.73736 0 0 0
19 0.45171 1.00733 16.71824 0 0 0
20 0.29406 1.26047 17.64101 0 0 0
21 0.44584 1.32959 18.59913 0 0 0
22 0.71264 1.47393 19.56949 0 0 0
23 1.15450 1.54962 20.38286 0 0 0
24 1.51490 0.96174 21.15708 0 0 0
25 1.25282 0.42930 22.07894 0 0 0
26 1.47645 0.84669 22.98089 0 0 0
27 1.51765 0.95669 23.98367 0 0 0
28 1.18353 1.05492 24.97406 0 0 0
29 0.74359 0.77138 25.83495 0 0 0
30 0.33113 0.12483 26.42747 0 0 0
31 -0.09324 -0.34597 27.20611 0 0 0
32 0.15198 -0.76340 28.08934 0 0 0
33 0.33188 -0.99981 29.03323 0 0 0
34 0.63595 -1.07732 29.97416 0 0 0
35 0.61388 -0.20775 30.45389 0 0 0
36 0.63004 -0.07768 31.45700 0 0 0
37 0.88631 -0.68569 32.13095 0 0 0
38 0.28321 -1.02590 32.97077 0 0 0
39 0.41063 -1.04999 33.97103 0 0 0
40 0.19415 -0.93047 34.89202 0 0 0
41 0.38058 -1.36861 35.77710 0 0 0
42 0.30103 -1.21970 36.75190 0 0 0
43 0.91281 -1.04308 37.46060 0 0 0
44 1.01653 -1.16184 38.38154 0 0 0
45 0.50816 -0.57989 38.94726 0 0 0
46 0.68628 -0.59764 39.95864 0 0 0
47 0.58517 -0.43260 40.93962 0 0 0
48 0.31100 -0.37473 41.90323 0 0 0
49 0.17978 0.23577 42.72633 0 0 0
50 -0.18058 0.54416 43.58236 0 0 0
51 -0.39256 0.60632 44.52988 0 0 0
52 -0.57714 0.22712 45.37251 0 0 0
53 -0.18343 -0.30176 46.02861 0 0 0
54 0.23138 -0.38657 46.95309 0 0 0
55 -0.09561 -0.18054 47.87276 0 0 0
56 -0.80444 -0.48619 48.55176 0 0 0
57 -0.88644 -1.28625 49.16432 0 0 0
58 -0.55130 -0.97732 50.03312 0 0 0
59 0.07792 -0.81385 50.78469 0 0 0
60 0.15934 -0.00176 51.30138 0 0 0
61 0.54707 0.16912 52.18412 0 0 0
62 0.21296 -0.45349 52.89396 0 0 0
63 -0.63719 -0.44083 53.42762 0 0 0
64 -0.57558 -1.02511 54.16247 0 0 0
65 -0.69493 -1.29810 55.08160 0 0 0
66 -1.12933 -1.19180 56.00141 0 0 0
67 -1.51108 -1.13625 56.91091 0 0 0
68 -0.92074 -1.13808 57.76449 0 0 0
69 -0.68312 -0.43112 58.34407 0 0 0
70 -0.73587 -0.58547 59.30163 0 0 0
71 -0.81460 -0.54423 60.26103 0 0 0
72 -1.33043 -0.90037 60.98462 0 0 0
73 -1.16556 -0.80923 61.95954 0 0 0
74 -0.95509 -1.01104 62.89109 0 0 0
75 -0.88344 -1.34627 63.83547 0 0 0
76 -1.12500 -1.57535 64.74614 0 0 0
77 -1.29502 -1.50797 65.76398 0 0 0
78 -1.33888 -1.60820 66.71827 0 0 0
79 -1.16374 -1.44879 67.67390 0 0 0
80 -0.66143 -1.61964 68.65241 0 0 0
81 -0.68648 -1.63279 69.61783 0 0 0
82 -0.23154 -1.10916 70.24515 0 0 0
83 0.56397 -0.60863 70.48881 0 0 0
84 1.19799 -0.38838 71.20125 0 0 0
85 1.64518 -0.03727 71.98275 0 0 0
86 2.11747 0.49310 72.56130 0 0 0
87 2.84015 0.94900 73.03648 0 0 0
88 3.38306 1.00936 73.87931 0 0 0
89 4.04420 1.11246 74.69360 0 0 0
90 4.75643 1.76820 75.05644 0 0 0
91 5.39194 2.09460 75.80876 0 0 0
92 5.99361 2.84023 76.19216 0 0 0
93 6.72199 3.24578 76.66483 0 0 0
94 7.52245 3.53073 77.25653 0 0 0
95 7.95157 3.53677 78.11887 0 0 0
96 8.26883 3.92940 79.00233 0 0 0
97 9.17206 3.89896 79.41268 0 0 0
98 9.75991 4.59391 79.74963 0 0 0
99 10.64269 4.89893 80.22450 0 0 0
100 10.84270 5.41755 81.12512 0 0 0
101 11.52718 5.72442 81.72972 0 0 0
102 12.41884 5.87505 82.13190 0 0 0
103 13.14300 6.31529 82.78861 0 0 0
104 13.34733 7.17994 83.13792 0 0 0
105 14.09210 7.52751 83.82192 0 0 0
106 14.69982 7.97571 84.43260 0 0 0
107 15.13905 7.77070 85.32134 0 0 0
108 15.43589 8.38737 85.99680 0 0 0
109 15.68863 8.27178 86.94130 0 0 0
110 15.99113 8.85259 87.70340 0 0 0
111 16.67291 9.12580 88.36624 0 0 0
112 17.04884 9.21845 89.32085 0 0 0
113 17.36181 9.00027 90.28420 0 0 0
114 18.10210 9.41408 90.90683 0 0 0
115 18.32576 9.28286 91.86422 0 0 0
116 19.16502 9.23398 92.37103 0 0 0
117 20.03816 9.55727 92.66165 0 0 0
118 20.59027 10.18162 93.32339 0 0 0
119 21.09932 10.87682 93.68326 0 0 0
120 21.47302 11.20468 94.70126 0 0 0
121 22.18935 11.54616 95.30926 0 0 0
122 22.51467 11.92914 96.16621 0 0 0
123 23.17173 12.05813 96.88123 0 0 0
124 23.89818 12.39243 97.53110 0 0 0
125 24.95259 12.55229 97.75689 0 0 0
126 25.30031 12.58425 98.68229 0 0 0
127 25.80071 12.47088 99.46546 0 0 0
128 26.35573 12.42172 100.26935 0 0 0
129 27.08787 11.92926 100.69507 0 0 0
130 27.84618 12.39531 101.36340 0 0 0
131 28.29972 12.20575 102.22583 0 0 0
132 28.67841 12.96394 102.70612 0 0 0
133 29.18569 12.79385 103.57985 0 0 0
134 29.75300 13.14187 104.33429 0 0 0
135 30.70372 13.38640 104.57024 0 0 0
136 31.53142 13.51444 105.13022 0 0 0
137 32.24083 13.85102 105.76565 0 0 0
138 32.82367 14.60326 105.97880 0 0 0
139 33.57487 14.96419 106.55588 0 0 0
140 33.88005 14.91307 107.56436 0 0 0
141 34.79470 14.95475 107.86631 0 0 0
142 35.37096 14.61472 108.54143 0 0 0
143 35.80759 14.09175 109.26809 0 0 0
144 36.26738 14.47502 110.16202 0 0 0
145 36.86951 14.42979 110.90679 0 0 0
146 37.51698 14.81975 111.51461 0 0 0
147 37.84097 15.50406 112.11537 0 0 0
148 38.69539 15.63890 111.70587 0 0 0
149 39.66861 16.09162 111.69367 0 0 0
150 40.11430 16.29380 112.56882 0 0 0
151 40.63957 16.29714 113.40641 0 0 0
152 40.48019 16.72808 114.26979 0 0 0
153 41.19599 16.20443 114.70974 0 0 0
154 42.07899 16.08548 115.12135 0 0 0
155 42.61162 17.01653 115.35512 0 0 0
156 43.29856 17.61941 115.72211 0 0 0
157 44.19839 18.00107 115.81943 0 0 0
158 44.68029 17.92581 116.63744 0 0 0
159 44.97211 16.95056 116.72337 0 0 0
160 45.60780 17.67329 117.01476 0 0 0
161 45.76389 18.15901 117.86496 0 0 0
162 -1.17840 -1.95645 70.48238 0 0 0
163 -2.08455 -2.43374 70.66157 0 0 0
164 -2.40805 -3.38065 70.79632 0 0 0
165 -3.37653 -3.62968 70.90666 0 0 0
166 -4.26040 -3.96057 70.90896 0 0 0
167 -5.12783 -4.28213 71.24283 0 0 0
168 -5.94893 -4.87112 70.95761 0 0 0
169 -6.35659 -5.85594 71.04902 0 0 0
170 -6.99508 -6.54676 71.24216 0 0 0
171 -7.37682 -7.44031 71.29209 0 0 0
172 -7.55061 -8.37144 71.37167 0 0 0
173 -7.59349 -9.32634 71.45851 0 0 0
174 -7.45985 -10.25087 71.43495 0 0 0
175 -8.09995 -10.92480 71.89387 0 0 0
176 -8.46159 -11.84009 72.17286 0 0 0
177 -9.42060 -12.24479 72.49797 0 0 0
178 -10.23144 -12.91120 72.71803 0 0 0
179 -10.82104 -13.69976 72.59124 0 0 0
180 -11.38025 -14.61275 72.46336 0 0 0
181 -12.05079 -15.36002 72.28540 0 0 0
182 -12.65535 -16.23309 72.29029 0 0 0
183 -13.18821 -17.05061 72.45275 0 0 0
184 -13.71968 -17.94470 72.42149 0 0 0
185 -14.48141 -18.41990 71.86389 0 0 0
186 -15.32582 -18.53492 72.25760 0 0 0
187 -16.33292 -18.61275 72.33369 0 0 0
188 -17.31475 -18.85355 72.54077 0 0 0
189 -18.12808 -19.44059 72.39927 0 0 0
190 -18.87649 -20.09775 72.51729 0 0 0
191 -19.28243 -20.97412 72.61733 0 0 0
192 -19.88895 -21.63052 72.70143 0 0 0
193 -20.20734 -22.49181 73.13484 0 0 0
194 -20.74089 -23.42144 73.15677 0 0 0
195 -20.90621 -24.06039 73.92191 0 0 0
196 -21.43695 -24.88582 74.15174 0 0 0
197 -21.84318 -25.78215 74.05898 0 0 0
198 -22.59471 -26.40571 73.88140 0 0 0
199 -22.76264 -27.17258 73.25375 0 0 0
200 -23.21347 -28.03764 72.86785 0 0 0
201 -24.04381 -28.44462 72.62337 0 0 0
202 -24.59696 -29.20700 72.63089 0 0 0
203 -25.43712 -29.62041 72.21826 0 0 0
204 -25.68847 -30.50444 72.46738 0 0 0
205 -26.18609 -31.34358 72.49148 0 0 0
206 -26.79557 -31.89267 73.03165 0 0 0
207 -26.96241 -32.67410 73.50989 0 0 0
208 -27.98702 -32.65356 73.60307 0 0 0
209 -28.70590 -33.32422 73.58401 0 0 0
210 -29.45390 -33.89929 73.49911 0 0 0
211 -30.10169 -34.58381 73.79480 0 0 0
212 -30.98721 -35.25544 73.77679 0 0 0
213 -31.75131 -35.67818 73.31896 0 0 0
214 -31.77871 -36.61234 73.11419 0 0 0
215 -32.65191 -37.08410 73.03601 0 0 0
216 -32.83125 -38.05205 73.07161 0 0 0
217 -33.71870 -38.48855 72.94331 0 0 0
218 -34.14486 -39.12555 72.35642 0 0 0
219 -35.05163 -39.48899 72.50860 0 0 0
220 -35.88020 -39.64589 73.02613 0 0 0
221 -36.26006 -40.58959 73.16729 0 0 0
222 -36.52532 -41.48590 73.31047 0 0 0
223 -36.81408 -42.38897 73.66805 0 0 0
224 -36.70836 -42.79423 72.74362 0 0 0
225 -36.84892 -43.45115 73.45895 0 0 0
226 -37.53901 -44.07121 73.10180 0 0 0
227 -38.05685 -44.96954 73.26579 0 0 0
228 -38.10093 -45.79786 73.76163 0 0 0
229 -38.72891 -46.16883 74.37821 0 0 0
230 -39.40551 -46.77138 74.74098 0 0 0
231 -39.97967 -47.41869 74.39813 0 0 0
232 -39.78260 -48.36958 74.16259 0 0 0
233 -39.46855 -49.23818 73.79684 0 0 0
234 -40.30090 -49.26861 74.45725 0 0 0
235 -40.59756 -50.07839 74.89718 0 0 0
236 -41.38977 -50.66356 75.11400 0 0 0
237 -41.18019 -51.18008 75.96553 0 0 0
238 -40.38815 -51.78490 76.08848 0 0 0
239 -40.79448 -52.30374 76.75640 0 0 0
240 -40.55449 -53.14840 77.08122 0 0 0
241 -40.11186 -54.02357 77.01666 0 0 0
242 0.04007 -2.34763 69.44417 0 0 0
243 0.99378 -2.63540 69.08546 0 0 0
244 1.71815 -2.91793 68.47877 0 0 0
245 2.45491 -3.51568 68.31100 0 0 0
246 2.78285 -4.14429 67.71388 0 0 0
247 3.65545 -4.63901 67.64997 0 0 0
248 4.56956 -5.04224 67.62646 0 0 0
249 5.48553 -5.41175 67.28962 0 0 0
250 5.97972 -5.97800 66.56582 0 0 0
251 6.27762 -6.79352 66.14900 0 0 0
252 7.11080 -7.26851 66.06847 0 0 0
253 7.92749 -7.77067 65.83835 0 0 0
254 8.66851 -8.36578 65.58483 0 0 0
255 9.62008 -8.44288 65.42712 0 0 0
256 10.22997 -9.04291 64.92717 0 0 0
257 11.05961 -9.26099 64.31424 0 0 0
258 11.98244 -9.58402 63.86773 0 0 0
259 12.86451 -9.59193 63.42855 0 0 0
260 13.50193 -9.83833 62.75554 0 0 0
261 14.29265 -10.49096 62.57287 0 0 0
262 15.23428 -10.94300 62.50880 0 0 0
263 16.15818 -11.47252 62.51972 0 0 0
264 16.77478 -11.89121 61.87594 0 0 0
265 17.65714 -12.26429 62.23259 0 0 0
266 18.37580 -12.77145 61.86430 0 0 0
267 19.27952 -12.93361 61.50472 0 0 0
268 20.24459 -13.00000 61.30745 0 0 0
269 20.95564 -13.65647 61.09093 0 0 0
270 21.56295 -14.10312 60.42337 0 0 0
271 22.40408 -14.65713 60.32919 0 0 0
272 22.85977 -15.49909 60.45319 0 0 0
273 23.63591 -16.03728 60.73487 0 0 0
274 24.54962 -16.48514 60.59506 0 0 0
275 25.19415 -17.15329 60.34031 0 0 0
276 25.91383 -17.80674 60.30712 0 0 0
277 26.31116 -18.39808 59.60348 0 0 0
278 27.06472 -18.51967 58.95782 0 0 0
279 27.81586 -18.99669 58.41929 0 0 0
280 28.68435 -19.39008 58.23903 0 0 0
281 29.66753 -19.20760 58.33006 0 0 0
282 30.06079 -20.03293 58.55895 0 0 0
283 30.76878 -20.76972 58.34273 0 0 0
284 31.29718 -21.49028 57.76041 0 0 0
285 32.06025 -21.84769 57.21274 0 0 0
286 32.74295 -22.49990 56.85663 0 0 0
287 33.56149 -22.82460 56.37279 0 0 0
288 34.29268 -23.40686 56.00901 0 0 0
289 35.01803 -23.99972 55.89351 0 0 0
290 35.69786 -24.46508 55.39448 0 0 0
291 36.34380 -25.09718 55.24628 0 0 0
292 36.70457 -25.94232 54.63200 0 0 0
293 36.78829 -26.28751 53.70606 0 0 0
294 37.41516 -27.09536 53.63377 0 0 0
295 38.25868 -27.59295 53.45217 0 0 0
296 39.10026 -28.11721 53.62389 0 0 0
297 39.93608 -28.62046 53.32099 0 0 0
298 40.76131 -29.22604 53.21366 0 0 0
299 41.41955 -29.87644 52.76555 0 0 0
300 42.20290 -30.54448 52.40376 0 0 0
301 42.93659 -31.22649 52.44978 0 0 0
302 43.02284 -31.98376 51.83001 0 0 0
303 43.95519 -32.20943 51.53761 0 0 0
304 44.65422 -32.52360 50.96150 0 0 0
305 45.59967 -32.64693 50.64077 0 0 0
306 46.03690 -33.49169 50.30286 0 0 0
307 46.76975 -33.75556 49.69734 0 0 0
308 47.70317 -33.88917 49.49477 0 0 0
309 48.66693 -34.08672 49.44665 0 0 0
310 49.10835 -34.80520 49.00561 0 0 0
311 49.79843 -35.53333 49.05479 0 0 0
312 50.25356 -36.43463 49.07699 0 0 0
313 51.25760 -36.61276 49.13677 0 0 0
314 51.42233 -37.28796 48.45208 0 0 0
315 51.84861 -38.07806 48.05104 0 0 0
316 52.03670 -38.89669 47.50194 0 0 0
317 52.27744 -38.35788 46.71699 0 0 0
318 53.28768 -38.49637 46.67877 0 0 0
319 53.90134 -37.82020 46.35839 0 0 0
320 54.29925 -38.35964 47.03569 0 0 0
321 53.99279 -37.80106 47.86173 0 0 0
322 -1.72140 -1.19408 69.50336 0 0 0
323 -2.32295 -0.69497 70.03447 0 0 0
324 -2.98488 0.07797 70.39717 0 0 0
325 -3.51145 0.98341 70.69581 0 0 0
326 -3.93966 1.73693 71.07084 0 0 0
327 -4.72197 2.13530 71.56288 0 0 0
328 -5.31059 2.61031 72.22695 0 0 0
329 -5.85291 3.19587 72.77315 0 0 0
330 -6.72001 3.44859 73.01997 0 0 0
331 -7.50512 3.98705 73.41265 0 0 0
332 -8.12366 4.48267 74.00607 0 0 0
333 -8.92361 4.98510 74.36172 0 0 0
334 -9.57471 5.45630 74.94725 0 0 0
335 -10.52862 5.91787 75.13299 0 0 0
336 -11.18830 6.37536 75.62323 0 0 0
337 -12.02289 6.84336 75.80841 0 0 0
338 -12.99244 6.82142 75.63760 0 0 0
339 -13.79438 7.34466 76.15457 0 0 0
340 -14.33099 8.15396 76.21651 0 0 0
341 -14.63152 9.00966 76.01889 0 0 0
342 -15.41343 9.57838 76.19714 0 0 0
343 -16.10484 10.26830 76.61024 0 0 0
344 -16.92069 10.83086 76.85049 0 0 0
345 -17.76272 11.17995 77.26294 0 0 0
346 -18.60955 11.65019 77.22557 0 0 0
347 -19.32179 12.31205 77.22084 0 0 0
348 -20.24128 12.71181 77.10013 0 0 0
349 -21.02038 13.26263 77.41334 0 0 0
350 -21.34618 14.17413 77.39662 0 0 0
351 -22.15967 14.73152 77.77542 0 0 0
352 -23.08291 14.59148 77.62526 0 0 0
353 -23.61515 15.35101 77.95356 0 0 0
354 -24.45202 15.65736 78.27198 0 0 0
355 -25.30452 16.22825 78.43141 0 0 0
356 -26.19575 16.62206 78.66622 0 0 0
357 -26.69886 17.23777 79.36244 0 0 0
358 -27.25831 17.70112 80.05875 0 0 0
359 -27.87385 17.63431 80.77039 0 0 0
360 -28.14406 18.44605 81.14329 0 0 0
361 -28.65162 19.19786 81.47662 0 0 0
362 -29.59956 19.32775 81.80164 0 0 0
363 -30.31033 19.68041 82.35885 0 0 0
364 -30.71030 20.41256 82.96347 0 0 0
365 -31.71483 20.60628 82.64086 0 0 0
366 -32.37610 21.34143 82.85301 0 0 0
367 -32.91161 22.09399 83.10263 0 0 0
368 -33.64672 22.18912 83.71847 0 0 0
369 -34.07112 22.94534 84.27006 0 0 0
370 -34.81784 23.52376 84.76496 0 0 0
371 -35.79587 23.53326 85.13289 0 0 0
372 -36.57595 23.80502 85.69255 0 0 0
373 -37.11735 24.54831 85.43692 0 0 0
374 -37.98275 24.62199 85.84020 0 0 0
375 -38.21927 25.56769 86.05468 0 0 0
376 -38.37260 26.54801 86.26253 0 0 0
377 -39.09796 26.97025 86.87760 0 0 0
378 -39.52665 27.73671 86.49373 0 0 0
379 -40.39962 28.27411 86.25752 0 0 0
380 -40.90274 28.70709 86.99063 0 0 0
381 -41.49437 29.45464 87.23353 0 0 0
382 -42.05264 30.23647 87.42424 0 0 0
383 -42.69542 30.87983 87.75613 0 0 0
384 -43.18675 31.67317 88.03492 0 0 0
385 -43.57519 32.08649 88.89221 0 0 0
386 -44.17731 32.82369 89.20694 0 0 0
387 -45.11475 32.60167 89.26038 0 0 0
388 -46.04162 32.35905 89.00260 0 0 0
389 -46.79915 32.87877 89.26618 0 0 0
390 -47.50624 33.12023 89.98707 0 0 0
391 -48.13245 33.64185 90.51808 0 0 0
392 -48.45533 34.49108 90.84877 0 0 0
393 -49.01113 35.21781 91.17903 0 0 0
394 -49.42897 35.94026 90.65887 0 0 0
395 -50.26005 36.50939 90.51525 0 0 0
396 -50.61568 37.13659 91.18557 0 0 0
397 -51.59593 37.01607 91.48397 0 0 0