bb120nuc3bl30bn4d30tot300V2

301 atoms
300 bonds
308 angles

1 atom types
1 bond types
1 angle types

-1000 1000 xlo xhi
-1000 1000 ylo yhi
-1000 1000 zlo zhi

Masses

1 1

Atoms

1	1	1	0.0	0.0	0.0	0	0	0
2	1	1	0.0	0.0	1.0	0	0	0
3	1	1	0.0	-0.49999999999999994	1.8660254037844388	0	0	0
4	1	1	0.0	0.0	2.7320508075688776	0	0	0
5	1	1	0.0	-0.49999999999999994	3.5980762113533165	0	0	0
6	1	1	0.0	0.0	4.464101615137755	0	0	0
7	1	1	0.0	-0.49999999999999994	5.330127018922194	0	0	0
8	1	1	0.0	0.0	6.196152422706632	0	0	0
9	1	1	0.0	-0.49999999999999994	7.06217782649107	0	0	0
10	1	1	0.0	0.0	7.928203230275509	0	0	0
11	1	1	0.0	-0.49999999999999994	8.794228634059948	0	0	0
12	1	1	0.0	0.0	9.660254037844387	0	0	0
13	1	1	0.0	-0.49999999999999994	10.526279441628827	0	0	0
14	1	1	0.0	0.0	11.392304845413266	0	0	0
15	1	1	0.0	-0.49999999999999994	12.258330249197705	0	0	0
16	1	1	0.0	0.0	13.124355652982144	0	0	0
17	1	1	0.0	-0.49999999999999994	13.990381056766584	0	0	0
18	1	1	0.0	0.0	14.856406460551023	0	0	0
19	1	1	0.0	-0.49999999999999994	15.722431864335462	0	0	0
20	1	1	0.0	0.0	16.5884572681199	0	0	0
21	1	1	0.0	-0.49999999999999994	17.454482671904337	0	0	0
22	1	1	0.0	0.0	18.320508075688775	0	0	0
23	1	1	0.0	-0.49999999999999994	19.186533479473212	0	0	0
24	1	1	0.0	0.0	20.05255888325765	0	0	0
25	1	1	0.0	-0.49999999999999994	20.918584287042087	0	0	0
26	1	1	0.0	0.0	21.784609690826525	0	0	0
27	1	1	0.0	-0.49999999999999994	22.650635094610962	0	0	0
28	1	1	0.0	0.0	23.5166604983954	0	0	0
29	1	1	0.0	-0.49999999999999994	24.382685902179837	0	0	0
30	1	1	0.0	0.0	25.248711305964274	0	0	0
31	1	1	0.0	-0.49999999999999994	26.114736709748712	0	0	0
32	1	1	-0.6237765183397069	-1.278954797495724	26.050453907799927	0	0	0
33	1	1	-1.2475530366794145	-1.9214080395523925	25.605305969537973	0	0	0
34	1	1	-1.871329555019122	-2.628144083557846	25.939112828771744	0	0	0
35	1	1	-2.4951060733588295	-3.2705973256145144	25.49396489050979	0	0	0
36	1	1	-3.118882591698537	-3.9773333696199678	25.82777174974356	0	0	0
37	1	1	-3.7426591100382445	-4.619786611676636	25.382623811481608	0	0	0
38	1	1	-4.3664356283779515	-5.326522655682089	25.71643067071538	0	0	0
39	1	1	-4.990212146717659	-5.9689758977387575	25.271282732453425	0	0	0
40	1	1	-5.6139886650573665	-6.675711941744211	25.605089591687197	0	0	0
41	1	1	-6.237765183397074	-7.31816518380088	25.159941653425243	0	0	0
42	1	1	-6.8615417017367815	-8.024901227806334	25.493748512659014	0	0	0
43	1	1	-7.485318220076489	-8.667354469863001	25.04860057439706	0	0	0
44	1	1	-8.109094738416196	-9.374090513868454	25.38240743363083	0	0	0
45	1	1	-8.732871256755905	-10.016543755925122	24.937259495368878	0	0	0
46	1	1	-9.356647775095613	-10.723279799930575	25.27106635460265	0	0	0
47	1	1	-9.980424293435322	-11.365733041987243	24.825918416340695	0	0	0
48	1	1	-10.60420081177503	-12.072469085992696	25.159725275574466	0	0	0
49	1	1	-11.227977330114738	-12.714922328049363	24.714577337312512	0	0	0
50	1	1	-11.851753848454447	-13.421658372054816	25.048384196546284	0	0	0
51	1	1	-12.475530366794155	-14.064111614111484	24.60323625828433	0	0	0
52	1	1	-13.099306885133863	-14.770847658116937	24.9370431175181	0	0	0
53	1	1	-13.723083403473572	-15.413300900173605	24.491895179256147	0	0	0
54	1	1	-14.34685992181328	-16.12003694417906	24.82570203848992	0	0	0
55	1	1	-14.970636440152989	-16.762490186235727	24.380554100227965	0	0	0
56	1	1	-15.594412958492697	-17.46922623024118	24.714360959461736	0	0	0
57	1	1	-16.218189476832404	-18.111679472297848	24.269213021199782	0	0	0
58	1	1	-16.84196599517211	-18.8184155163033	24.603019880433553	0	0	0
59	1	1	-17.465742513511817	-19.460868758359968	24.1578719421716	0	0	0
60	1	1	-18.089519031851523	-20.16760480236542	24.49167880140537	0	0	0
61	1	1	-18.71329555019123	-20.81005804442209	24.046530863143417	0	0	0
62	1	1	-0.30016310870898744	0.10695464307731312	26.850609096387213	0	0	0
63	1	1	-0.6003262174179751	0.2646565896079318	27.7913705986983	0	0	0
64	1	1	-0.9004893261269629	1.158230922777054	28.12517745793207	0	0	0
65	1	1	-1.2006524348359506	1.3159328693076726	29.06593896024316	0	0	0
66	1	1	-1.5008155435449384	2.2095072024767948	29.39974581947693	0	0	0
67	1	1	-1.8009786522539262	2.3672091490074134	30.340507321788017	0	0	0
68	1	1	-2.1011417609629137	3.2607834821765356	30.67431418102179	0	0	0
69	1	1	-2.4013048696719013	3.418485428707154	31.615075683332876	0	0	0
70	1	1	-2.701467978380889	4.312059761876276	31.948882542566647	0	0	0
71	1	1	-3.0016310870898764	4.469761708406895	32.889644044877734	0	0	0
72	1	1	-3.301794195798864	5.363336041576018	33.22345090411151	0	0	0
73	1	1	-3.6019573045078515	5.521037988106636	34.16421240642259	0	0	0
74	1	1	-3.902120413216839	6.414612321275758	34.49801926565637	0	0	0
75	1	1	-4.2022835219258265	6.572314267806377	35.43878076796745	0	0	0
76	1	1	-4.5024466306348145	7.465888600975498	35.772587627201226	0	0	0
77	1	1	-4.8026097393438025	7.623590547506117	36.71334912951231	0	0	0
78	1	1	-5.1027728480527905	8.517164880675239	37.047155988746084	0	0	0
79	1	1	-5.4029359567617785	8.674866827205857	37.98791749105717	0	0	0
80	1	1	-5.7030990654707665	9.568441160374979	38.32172435029094	0	0	0
81	1	1	-6.0032621741797545	9.726143106905598	39.262485852602026	0	0	0
82	1	1	-6.3034252828887425	10.61971744007472	39.5962927118358	0	0	0
83	1	1	-6.6035883915977305	10.777419386605338	40.537054214146885	0	0	0
84	1	1	-6.9037515003067185	11.67099371977446	40.87086107338066	0	0	0
85	1	1	-7.2039146090157065	11.828695666305078	41.81162257569174	0	0	0
86	1	1	-7.5040777177246945	12.7222699994742	42.14542943492552	0	0	0
87	1	1	-7.804240826433682	12.879971946004819	43.0861909372366	0	0	0
88	1	1	-8.10440393514267	13.77354627917394	43.419997796470376	0	0	0
89	1	1	-8.404567043851658	13.93124822570456	44.36075929878146	0	0	0
90	1	1	-8.704730152560646	14.82482255887368	44.694566158015235	0	0	0
91	1	1	-9.004893261269634	14.9825245054043	45.63532766032632	0	0	0
92	1	1	0.9239396270486931	-0.8287101344322424	26.31040278522082	0	0	0
93	1	1	1.8478792540973872	-1.2112144990680171	26.31549951002235	0	0	0
94	1	1	2.771818881146081	-1.3980527882316827	26.64930636925612	0	0	0
95	1	1	3.6957585081947752	-1.7805571528674575	26.65440309405765	0	0	0
96	1	1	4.619698135243469	-1.967395442031123	26.98820995329142	0	0	0
97	1	1	5.543637762292163	-2.349899806666898	26.99330667809295	0	0	0
98	1	1	6.467577389340857	-2.5367380958305636	27.32711353732672	0	0	0
99	1	1	7.3915170163895505	-2.9192424604663385	27.33221026212825	0	0	0
100	1	1	8.315456643438244	-3.1060807496300042	27.66601712136202	0	0	0
101	1	1	9.239396270486939	-3.488585114265779	27.67111384616355	0	0	0
102	1	1	10.163335897535633	-3.675423403429445	28.00492070539732	0	0	0
103	1	1	11.087275524584328	-4.05792776806522	28.01001743019885	0	0	0
104	1	1	12.011215151633023	-4.244766057228885	28.34382428943262	0	0	0
105	1	1	12.935154778681717	-4.62727042186466	28.34892101423415	0	0	0
106	1	1	13.859094405730412	-4.814108711028325	28.682727873467922	0	0	0
107	1	1	14.783034032779106	-5.1966130756641	28.68782459826945	0	0	0
108	1	1	15.706973659827801	-5.383451364827765	29.021631457503222	0	0	0
109	1	1	16.630913286876496	-5.76595572946354	29.02672818230475	0	0	0
110	1	1	17.55485291392519	-5.9527940186272055	29.360535041538522	0	0	0
111	1	1	18.47879254097388	-6.33529838326298	29.36563176634005	0	0	0
112	1	1	19.402732168022574	-6.522136672426646	29.699438625573823	0	0	0
113	1	1	20.326671795071267	-6.9046410370624205	29.70453535037535	0	0	0
114	1	1	21.25061142211996	-7.091479326226086	30.038342209609123	0	0	0
115	1	1	22.174551049168652	-7.473983690861861	30.043438934410652	0	0	0
116	1	1	23.098490676217345	-7.660821980025526	30.377245793644423	0	0	0
117	1	1	24.022430303266038	-8.0433263446613	30.382342518445952	0	0	0
118	1	1	24.94636993031473	-8.230164633824966	30.716149377679724	0	0	0
119	1	1	25.870309557363424	-8.612668998460741	30.721246102481253	0	0	0
120	1	1	26.794249184412116	-8.799507287624406	31.055052961715024	0	0	0
121	1	1	27.71818881146081	-9.182011652260181	31.060149686516553	0	0	0
122	1	1	27.959224001523253	-9.484765096026328	30.138063796027332	0	0	0
123	1	1	28.200259191585697	-9.285914324166423	29.188137268509397	0	0	0
124	1	1	28.44129438164814	-10.00914944279574	28.54096418475761	0	0	0
125	1	1	28.682329571710586	-9.810298670935836	27.591037657239674	0	0	0
126	1	1	28.92336476177303	-10.533533789565153	26.943864573487886	0	0	0
127	1	1	29.164399951835474	-10.334683017705249	25.99393804596995	0	0	0
128	1	1	29.405435141897918	-11.057918136334566	25.346764962218163	0	0	0
129	1	1	29.646470331960362	-10.859067364474662	24.39683843470023	0	0	0
130	1	1	29.887505522022806	-11.582302483103978	23.74966535094844	0	0	0
131	1	1	30.12854071208525	-11.383451711244074	22.799738823430506	0	0	0
132	1	1	30.369575902147695	-12.106686829873391	22.152565739678717	0	0	0
133	1	1	30.61061109221014	-11.907836058013487	21.202639212160783	0	0	0
134	1	1	30.851646282272583	-12.631071176642804	20.555466128408995	0	0	0
135	1	1	31.092681472335027	-12.4322204047829	19.60553960089106	0	0	0
136	1	1	31.33371666239747	-13.155455523412217	18.95836651713927	0	0	0
137	1	1	31.574751852459915	-12.956604751552312	18.008439989621337	0	0	0
138	1	1	31.81578704252236	-13.67983987018163	17.36126690586955	0	0	0
139	1	1	32.0568222325848	-13.480989098321725	16.411340378351614	0	0	0
140	1	1	32.29785742264724	-14.204224216951042	15.764167294599826	0	0	0
141	1	1	32.53889261270968	-14.005373445091138	14.814240767081891	0	0	0
142	1	1	32.77992780277212	-14.728608563720455	14.167067683330103	0	0	0
143	1	1	33.02096299283456	-14.52975779186055	13.217141155812168	0	0	0
144	1	1	33.261998182897	-15.252992910489867	12.56996807206038	0	0	0
145	1	1	33.50303337295944	-15.054142138629963	11.620041544542445	0	0	0
146	1	1	33.744068563021884	-15.77737725725928	10.972868460790657	0	0	0
147	1	1	33.985103753084324	-15.578526485399376	10.022941933272723	0	0	0
148	1	1	34.226138943146765	-16.301761604028695	9.375768849520934	0	0	0
149	1	1	34.467174133209205	-16.102910832168792	8.425842322003	0	0	0
150	1	1	34.708209323271646	-16.82614595079811	7.7786692382512115	0	0	0
151	1	1	34.94924451333409	-16.62729517893821	6.828742710733276	0	0	0
152	1	1	27.753512186582466	-9.96103451445395	31.686149398456937	0	0	0
153	1	1	27.788835561704122	-10.948687959212808	31.838769620662166	0	0	0
154	1	1	27.82415893682578	-11.310341692031283	32.77041270506116	0	0	0
155	1	1	27.859482311947435	-12.297995136790142	32.92303292726639	0	0	0
156	1	1	27.89480568706909	-12.659648869608617	33.85467601166539	0	0	0
157	1	1	27.930129062190748	-13.647302314367476	34.00729623387062	0	0	0
158	1	1	27.965452437312404	-14.00895604718595	34.93893931826962	0	0	0
159	1	1	28.00077581243406	-14.99660949194481	35.09155954047485	0	0	0
160	1	1	28.036099187555717	-15.358263224763284	36.023202624873846	0	0	0
161	1	1	28.071422562677373	-16.345916669522143	36.175822847079075	0	0	0
162	1	1	28.10674593779903	-16.707570402340618	37.107465931478075	0	0	0
163	1	1	28.142069312920686	-17.695223847099477	37.260086153683304	0	0	0
164	1	1	28.177392688042342	-18.056877579917952	38.1917292380823	0	0	0
165	1	1	28.212716063164	-19.04453102467681	38.34434946028753	0	0	0
166	1	1	28.248039438285655	-19.406184757495286	39.27599254468653	0	0	0
167	1	1	28.28336281340731	-20.393838202254145	39.42861276689176	0	0	0
168	1	1	28.318686188528968	-20.75549193507262	40.36025585129076	0	0	0
169	1	1	28.354009563650624	-21.74314537983148	40.51287607349599	0	0	0
170	1	1	28.38933293877228	-22.104799112649953	41.44451915789499	0	0	0
171	1	1	28.424656313893937	-23.092452557408812	41.59713938010022	0	0	0
172	1	1	28.459979689015594	-23.454106290227287	42.528782464499216	0	0	0
173	1	1	28.49530306413725	-24.441759734986146	42.681402686704445	0	0	0
174	1	1	28.530626439258906	-24.80341346780462	43.613045771103444	0	0	0
175	1	1	28.565949814380563	-25.79106691256348	43.76566599330867	0	0	0
176	1	1	28.60127318950222	-26.152720645381955	44.69730907770767	0	0	0
177	1	1	28.636596564623876	-27.140374090140813	44.8499292999129	0	0	0
178	1	1	28.671919939745532	-27.50202782295929	45.7815723843119	0	0	0
179	1	1	28.70724331486719	-28.489681267718147	45.93419260651713	0	0	0
180	1	1	28.742566689988845	-28.851335000536622	46.86583569091613	0	0	0
181	1	1	28.7778900651105	-29.83898844529548	47.01845591312136	0	0	0
182	1	1	28.367082401356946	-8.4832830881071	31.361339830160524	0	0	0
183	1	1	29.015975991253086	-8.028761473022694	31.971542428002227	0	0	0
184	1	1	29.664869581149226	-7.273049714294316	31.88301646169085	0	0	0
185	1	1	30.313763171045366	-6.818528099209908	32.49321905953256	0	0	0
186	1	1	30.962656760941506	-6.06281634048153	32.404693093221184	0	0	0
187	1	1	31.611550350837646	-5.608294725397123	33.01489569106289	0	0	0
188	1	1	32.260443940733786	-4.852582966668744	32.92636972475152	0	0	0
189	1	1	32.90933753062993	-4.398061351584337	33.53657232259322	0	0	0
190	1	1	33.55823112052607	-3.6423495928559584	33.44804635628185	0	0	0
191	1	1	34.20712471042221	-3.1878279777715517	34.058248954123556	0	0	0
192	1	1	34.85601830031835	-2.4321162190431727	33.96972298781218	0	0	0
193	1	1	35.50491189021449	-1.977594603958766	34.57992558565389	0	0	0
194	1	1	36.15380548011063	-1.2218828452303871	34.491399619342516	0	0	0
195	1	1	36.80269907000677	-0.7673612301459803	35.10160221718422	0	0	0
196	1	1	37.45159265990291	-0.011649471417601531	35.01307625087285	0	0	0
197	1	1	38.10048624979905	0.4428721436668053	35.623278848714556	0	0	0
198	1	1	38.74937983969519	1.198583902395184	35.53475288240318	0	0	0
199	1	1	39.39827342959133	1.6531055174795908	36.14495548024489	0	0	0
200	1	1	40.04716701948747	2.4088172762079694	36.056429513933516	0	0	0
201	1	1	40.69606060938361	2.863338891292376	36.66663211177522	0	0	0
202	1	1	41.34495419927975	3.619050650020755	36.57810614546385	0	0	0
203	1	1	41.99384778917589	4.073572265105162	37.188308743305555	0	0	0
204	1	1	42.64274137907203	4.829284023833541	37.09978277699418	0	0	0
205	1	1	43.29163496896817	5.283805638917948	37.70998537483589	0	0	0
206	1	1	43.94052855886431	6.039517397646327	37.621459408524515	0	0	0
207	1	1	44.58942214876045	6.494039012730734	38.23166200636622	0	0	0
208	1	1	45.23831573865659	7.249750771459112	38.14313604005485	0	0	0
209	1	1	45.88720932855273	7.704272386543519	38.753338637896555	0	0	0
210	1	1	46.53610291844887	8.459984145271898	38.66481267158518	0	0	0
211	1	1	47.18499650834501	8.914505760356304	39.27501526942689	0	0	0
212	1	1	47.7029456730814	9.598720635104494	38.76161613822174	0	0	0
213	1	1	48.220894837817795	10.447967663886184	38.65910688569132	0	0	0
214	1	1	48.73884400255419	10.783815561462731	37.87238275841271	0	0	0
215	1	1	49.25679316729058	11.633062590244421	37.769873505882295	0	0	0
216	1	1	49.774742332026975	11.968910487820969	36.983149378603684	0	0	0
217	1	1	50.29269149676337	12.818157516602659	36.88064012607327	0	0	0
218	1	1	50.81064066149976	13.154005414179206	36.09391599879466	0	0	0
219	1	1	51.328589826236154	14.003252442960896	35.99140674626424	0	0	0
220	1	1	51.84653899097255	14.339100340537444	35.20468261898563	0	0	0
221	1	1	52.36448815570894	15.188347369319134	35.10217336645521	0	0	0
222	1	1	52.882437320445334	15.524195266895681	34.3154492391766	0	0	0
223	1	1	53.40038648518173	16.37344229567737	34.212939986646184	0	0	0
224	1	1	53.91833564991812	16.709290193253917	33.426215859367574	0	0	0
225	1	1	54.43628481465451	17.558537222035607	33.323706606837156	0	0	0
226	1	1	54.95423397939091	17.894385119612153	32.536982479558546	0	0	0
227	1	1	55.4721831441273	18.743632148393843	32.43447322702813	0	0	0
228	1	1	55.99013230886369	19.07948004597039	31.647749099749518	0	0	0
229	1	1	56.508081473600086	19.92872707475208	31.545239847219097	0	0	0
230	1	1	57.02603063833648	20.264574972328624	30.75851571994049	0	0	0
231	1	1	57.54397980307287	21.113822001110314	30.65600646741007	0	0	0
232	1	1	58.061928967809266	21.44966989868686	29.869282340131463	0	0	0
233	1	1	58.57987813254566	22.29891692746855	29.76677308760104	0	0	0
234	1	1	59.09782729728205	22.634764825045096	28.980048960322435	0	0	0
235	1	1	59.615776462018445	23.484011853826786	28.877539707792014	0	0	0
236	1	1	60.13372562675484	23.81985975140333	28.090815580513407	0	0	0
237	1	1	60.65167479149123	24.66910678018502	27.988306327982986	0	0	0
238	1	1	61.169623956227625	25.004954677761567	27.20158220070438	0	0	0
239	1	1	61.68757312096402	25.854201706543257	27.09907294817396	0	0	0
240	1	1	62.20552228570041	26.190049604119803	26.31234882089535	0	0	0
241	1	1	62.723471450436804	27.039296632901493	26.20983956836493	0	0	0
242	1	1	47.81459152017234	8.237762323349077	39.65662821673056	0	0	0
243	1	1	48.44418653199967	7.4608788414045915	39.64874300500498	0	0	0
244	1	1	49.073781543826996	7.065608306763775	40.31760123028662	0	0	0
245	1	1	49.70337655565432	6.28872482481929	40.30971601856104	0	0	0
246	1	1	50.33297156748165	5.893454290178474	40.97857424384268	0	0	0
247	1	1	50.96256657930898	5.116570808233989	40.9706890321171	0	0	0
248	1	1	51.5921615911363	4.721300273593173	41.63954725739874	0	0	0
249	1	1	52.22175660296363	3.944416791648688	41.63166204567316	0	0	0
250	1	1	52.85135161479096	3.549146257007872	42.3005202709548	0	0	0
251	1	1	53.480946626618284	2.7722627750633864	42.29263505922922	0	0	0
252	1	1	54.11054163844561	2.3769922404225703	42.96149328451086	0	0	0
253	1	1	54.74013665027294	1.6001087584780849	42.95360807278528	0	0	0
254	1	1	55.369731662100264	1.2048382238372686	43.62246629806692	0	0	0
255	1	1	55.99932667392759	0.42795474189278315	43.61458108634134	0	0	0
256	1	1	56.62892168575492	0.03268420725196691	44.28343931162298	0	0	0
257	1	1	57.258516697582245	-0.7441992746925186	44.2755540998974	0	0	0
258	1	1	57.88811170940957	-1.1394698093333349	44.94441232517904	0	0	0
259	1	1	58.5177067212369	-1.9163532912778203	44.93652711345346	0	0	0
260	1	1	59.147301733064225	-2.3116238259186366	45.6053853387351	0	0	0
261	1	1	59.77689674489155	-3.088507307863122	45.59750012700952	0	0	0
262	1	1	60.40649175671888	-3.483777842503938	46.26635835229116	0	0	0
263	1	1	61.036086768546205	-4.2606613244484235	46.25847314056558	0	0	0
264	1	1	61.66568178037353	-4.65593185908924	46.927331365847216	0	0	0
265	1	1	62.29527679220086	-5.432815341033725	46.91944615412164	0	0	0
266	1	1	62.924871804028186	-5.8280858756745415	47.588304379403276	0	0	0
267	1	1	63.55446681585551	-6.6049693576190265	47.5804191676777	0	0	0
268	1	1	64.18406182768284	-7.0002398922598426	48.249277392959335	0	0	0
269	1	1	64.81365683951017	-7.7771233742043275	48.241392181233756	0	0	0
270	1	1	65.44325185133751	-8.172393908845144	48.910250406515395	0	0	0
271	1	1	66.07284686316484	-8.94927739078963	48.902365194789816	0	0	0
272	1	1	46.68726772544176	9.362201620970907	40.017870891373846	0	0	0
273	1	1	46.189538942538505	9.378489798458812	40.8850506616313	0	0	0
274	1	1	45.69181015963525	10.137633597893672	41.30453457127415	0	0	0
275	1	1	45.194081376732	10.153921775381576	42.1717143415316	0	0	0
276	1	1	44.69635259382875	10.913065574816436	42.59119825117445	0	0	0
277	1	1	44.1986238109255	10.92935375230434	43.4583780214319	0	0	0
278	1	1	43.700895028022245	11.6884975517392	43.87786193107475	0	0	0
279	1	1	43.20316624511899	11.704785729227105	44.7450417013322	0	0	0
280	1	1	42.70543746221574	12.463929528661964	45.16452561097505	0	0	0
281	1	1	42.20770867931249	12.480217706149869	46.0317053812325	0	0	0
282	1	1	41.70997989640924	13.239361505584728	46.45118929087535	0	0	0
283	1	1	41.212251113505985	13.255649683072633	47.3183690611328	0	0	0
284	1	1	40.71452233060273	14.014793482507493	47.73785297077565	0	0	0
285	1	1	40.21679354769948	14.031081659995397	48.6050327410331	0	0	0
286	1	1	39.71906476479623	14.790225459430257	49.02451665067595	0	0	0
287	1	1	39.22133598189298	14.806513636918162	49.8916964209334	0	0	0
288	1	1	38.723607198989725	15.565657436353021	50.31118033057625	0	0	0
289	1	1	38.22587841608647	15.581945613840926	51.1783601008337	0	0	0
290	1	1	37.72814963318322	16.341089413275785	51.59784401047655	0	0	0
291	1	1	37.23042085027997	16.35737759076369	52.465023780734	0	0	0
292	1	1	36.73269206737672	17.11652139019855	52.88450769037685	0	0	0
293	1	1	36.234963284473466	17.132809567686454	53.7516874606343	0	0	0
294	1	1	35.737234501570214	17.891953367121314	54.17117137027715	0	0	0
295	1	1	35.23950571866696	17.90824154460922	55.0383511405346	0	0	0
296	1	1	34.74177693576371	18.667385344044078	55.45783505017745	0	0	0
297	1	1	34.24404815286046	18.683673521531983	56.3250148204349	0	0	0
298	1	1	33.746319369957206	19.442817320966842	56.74449873007775	0	0	0
299	1	1	33.248590587053954	19.459105498454747	57.6116785003352	0	0	0
300	1	1	32.7508618041507	20.218249297889606	58.03116240997805	0	0	0
301	1	1	32.25313302124745	20.23453747537751	58.8983421802355	0	0	0

Bonds

1	1	1	2
2	1	2	3
3	1	3	4
4	1	4	5
5	1	5	6
6	1	6	7
7	1	7	8
8	1	8	9
9	1	9	10
10	1	10	11
11	1	11	12
12	1	12	13
13	1	13	14
14	1	14	15
15	1	15	16
16	1	16	17
17	1	17	18
18	1	18	19
19	1	19	20
20	1	20	21
21	1	21	22
22	1	22	23
23	1	23	24
24	1	24	25
25	1	25	26
26	1	26	27
27	1	27	28
28	1	28	29
29	1	29	30
30	1	30	31
31	1	31	32
32	1	31	62
33	1	31	92
34	1	32	33
35	1	33	34
36	1	34	35
37	1	35	36
38	1	36	37
39	1	37	38
40	1	38	39
41	1	39	40
42	1	40	41
43	1	41	42
44	1	42	43
45	1	43	44
46	1	44	45
47	1	45	46
48	1	46	47
49	1	47	48
50	1	48	49
51	1	49	50
52	1	50	51
53	1	51	52
54	1	52	53
55	1	53	54
56	1	54	55
57	1	55	56
58	1	56	57
59	1	57	58
60	1	58	59
61	1	59	60
62	1	60	61
63	1	62	63
64	1	63	64
65	1	64	65
66	1	65	66
67	1	66	67
68	1	67	68
69	1	68	69
70	1	69	70
71	1	70	71
72	1	71	72
73	1	72	73
74	1	73	74
75	1	74	75
76	1	75	76
77	1	76	77
78	1	77	78
79	1	78	79
80	1	79	80
81	1	80	81
82	1	81	82
83	1	82	83
84	1	83	84
85	1	84	85
86	1	85	86
87	1	86	87
88	1	87	88
89	1	88	89
90	1	89	90
91	1	90	91
92	1	92	93
93	1	93	94
94	1	94	95
95	1	95	96
96	1	96	97
97	1	97	98
98	1	98	99
99	1	99	100
100	1	100	101
101	1	101	102
102	1	102	103
103	1	103	104
104	1	104	105
105	1	105	106
106	1	106	107
107	1	107	108
108	1	108	109
109	1	109	110
110	1	110	111
111	1	111	112
112	1	112	113
113	1	113	114
114	1	114	115
115	1	115	116
116	1	116	117
117	1	117	118
118	1	118	119
119	1	119	120
120	1	120	121
121	1	121	122
122	1	121	152
123	1	121	182
124	1	122	123
125	1	123	124
126	1	124	125
127	1	125	126
128	1	126	127
129	1	127	128
130	1	128	129
131	1	129	130
132	1	130	131
133	1	131	132
134	1	132	133
135	1	133	134
136	1	134	135
137	1	135	136
138	1	136	137
139	1	137	138
140	1	138	139
141	1	139	140
142	1	140	141
143	1	141	142
144	1	142	143
145	1	143	144
146	1	144	145
147	1	145	146
148	1	146	147
149	1	147	148
150	1	148	149
151	1	149	150
152	1	150	151
153	1	152	153
154	1	153	154
155	1	154	155
156	1	155	156
157	1	156	157
158	1	157	158
159	1	158	159
160	1	159	160
161	1	160	161
162	1	161	162
163	1	162	163
164	1	163	164
165	1	164	165
166	1	165	166
167	1	166	167
168	1	167	168
169	1	168	169
170	1	169	170
171	1	170	171
172	1	171	172
173	1	172	173
174	1	173	174
175	1	174	175
176	1	175	176
177	1	176	177
178	1	177	178
179	1	178	179
180	1	179	180
181	1	180	181
182	1	182	183
183	1	183	184
184	1	184	185
185	1	185	186
186	1	186	187
187	1	187	188
188	1	188	189
189	1	189	190
190	1	190	191
191	1	191	192
192	1	192	193
193	1	193	194
194	1	194	195
195	1	195	196
196	1	196	197
197	1	197	198
198	1	198	199
199	1	199	200
200	1	200	201
201	1	201	202
202	1	202	203
203	1	203	204
204	1	204	205
205	1	205	206
206	1	206	207
207	1	207	208
208	1	208	209
209	1	209	210
210	1	210	211
211	1	211	212
212	1	211	242
213	1	211	272
214	1	212	213
215	1	213	214
216	1	214	215
217	1	215	216
218	1	216	217
219	1	217	218
220	1	218	219
221	1	219	220
222	1	220	221
223	1	221	222
224	1	222	223
225	1	223	224
226	1	224	225
227	1	225	226
228	1	226	227
229	1	227	228
230	1	228	229
231	1	229	230
232	1	230	231
233	1	231	232
234	1	232	233
235	1	233	234
236	1	234	235
237	1	235	236
238	1	236	237
239	1	237	238
240	1	238	239
241	1	239	240
242	1	240	241
243	1	242	243
244	1	243	244
245	1	244	245
246	1	245	246
247	1	246	247
248	1	247	248
249	1	248	249
250	1	249	250
251	1	250	251
252	1	251	252
253	1	252	253
254	1	253	254
255	1	254	255
256	1	255	256
257	1	256	257
258	1	257	258
259	1	258	259
260	1	259	260
261	1	260	261
262	1	261	262
263	1	262	263
264	1	263	264
265	1	264	265
266	1	265	266
267	1	266	267
268	1	267	268
269	1	268	269
270	1	269	270
271	1	270	271
272	1	272	273
273	1	273	274
274	1	274	275
275	1	275	276
276	1	276	277
277	1	277	278
278	1	278	279
279	1	279	280
280	1	280	281
281	1	281	282
282	1	282	283
283	1	283	284
284	1	284	285
285	1	285	286
286	1	286	287
287	1	287	288
288	1	288	289
289	1	289	290
290	1	290	291
291	1	291	292
292	1	292	293
293	1	293	294
294	1	294	295
295	1	295	296
296	1	296	297
297	1	297	298
298	1	298	299
299	1	299	300
300	1	300	301

Angles

1	1	1	2	3
2	1	2	3	4
3	1	3	4	5
4	1	4	5	6
5	1	5	6	7
6	1	6	7	8
7	1	7	8	9
8	1	8	9	10
9	1	9	10	11
10	1	10	11	12
11	1	11	12	13
12	1	12	13	14
13	1	13	14	15
14	1	14	15	16
15	1	15	16	17
16	1	16	17	18
17	1	17	18	19
18	1	18	19	20
19	1	19	20	21
20	1	20	21	22
21	1	21	22	23
22	1	22	23	24
23	1	23	24	25
24	1	24	25	26
25	1	25	26	27
26	1	26	27	28
27	1	27	28	29
28	1	28	29	30
29	1	29	30	31
30	1	30	31	32
31	1	30	31	62
32	1	30	31	92
33	1	31	32	33
34	1	31	62	63
35	1	31	92	93
36	1	32	31	62
37	1	32	31	92
38	1	32	33	34
39	1	33	34	35
40	1	34	35	36
41	1	35	36	37
42	1	36	37	38
43	1	37	38	39
44	1	38	39	40
45	1	39	40	41
46	1	40	41	42
47	1	41	42	43
48	1	42	43	44
49	1	43	44	45
50	1	44	45	46
51	1	45	46	47
52	1	46	47	48
53	1	47	48	49
54	1	48	49	50
55	1	49	50	51
56	1	50	51	52
57	1	51	52	53
58	1	52	53	54
59	1	53	54	55
60	1	54	55	56
61	1	55	56	57
62	1	56	57	58
63	1	57	58	59
64	1	58	59	60
65	1	59	60	61
66	1	62	31	92
67	1	62	63	64
68	1	63	64	65
69	1	64	65	66
70	1	65	66	67
71	1	66	67	68
72	1	67	68	69
73	1	68	69	70
74	1	69	70	71
75	1	70	71	72
76	1	71	72	73
77	1	72	73	74
78	1	73	74	75
79	1	74	75	76
80	1	75	76	77
81	1	76	77	78
82	1	77	78	79
83	1	78	79	80
84	1	79	80	81
85	1	80	81	82
86	1	81	82	83
87	1	82	83	84
88	1	83	84	85
89	1	84	85	86
90	1	85	86	87
91	1	86	87	88
92	1	87	88	89
93	1	88	89	90
94	1	89	90	91
95	1	92	93	94
96	1	93	94	95
97	1	94	95	96
98	1	95	96	97
99	1	96	97	98
100	1	97	98	99
101	1	98	99	100
102	1	99	100	101
103	1	100	101	102
104	1	101	102	103
105	1	102	103	104
106	1	103	104	105
107	1	104	105	106
108	1	105	106	107
109	1	106	107	108
110	1	107	108	109
111	1	108	109	110
112	1	109	110	111
113	1	110	111	112
114	1	111	112	113
115	1	112	113	114
116	1	113	114	115
117	1	114	115	116
118	1	115	116	117
119	1	116	117	118
120	1	117	118	119
121	1	118	119	120
122	1	119	120	121
123	1	120	121	122
124	1	120	121	152
125	1	120	121	182
126	1	121	122	123
127	1	121	152	153
128	1	121	182	183
129	1	122	121	152
130	1	122	121	182
131	1	122	123	124
132	1	123	124	125
133	1	124	125	126
134	1	125	126	127
135	1	126	127	128
136	1	127	128	129
137	1	128	129	130
138	1	129	130	131
139	1	130	131	132
140	1	131	132	133
141	1	132	133	134
142	1	133	134	135
143	1	134	135	136
144	1	135	136	137
145	1	136	137	138
146	1	137	138	139
147	1	138	139	140
148	1	139	140	141
149	1	140	141	142
150	1	141	142	143
151	1	142	143	144
152	1	143	144	145
153	1	144	145	146
154	1	145	146	147
155	1	146	147	148
156	1	147	148	149
157	1	148	149	150
158	1	149	150	151
159	1	152	121	182
160	1	152	153	154
161	1	153	154	155
162	1	154	155	156
163	1	155	156	157
164	1	156	157	158
165	1	157	158	159
166	1	158	159	160
167	1	159	160	161
168	1	160	161	162
169	1	161	162	163
170	1	162	163	164
171	1	163	164	165
172	1	164	165	166
173	1	165	166	167
174	1	166	167	168
175	1	167	168	169
176	1	168	169	170
177	1	169	170	171
178	1	170	171	172
179	1	171	172	173
180	1	172	173	174
181	1	173	174	175
182	1	174	175	176
183	1	175	176	177
184	1	176	177	178
185	1	177	178	179
186	1	178	179	180
187	1	179	180	181
188	1	182	183	184
189	1	183	184	185
190	1	184	185	186
191	1	185	186	187
192	1	186	187	188
193	1	187	188	189
194	1	188	189	190
195	1	189	190	191
196	1	190	191	192
197	1	191	192	193
198	1	192	193	194
199	1	193	194	195
200	1	194	195	196
201	1	195	196	197
202	1	196	197	198
203	1	197	198	199
204	1	198	199	200
205	1	199	200	201
206	1	200	201	202
207	1	201	202	203
208	1	202	203	204
209	1	203	204	205
210	1	204	205	206
211	1	205	206	207
212	1	206	207	208
213	1	207	208	209
214	1	208	209	210
215	1	209	210	211
216	1	210	211	212
217	1	210	211	242
218	1	210	211	272
219	1	211	212	213
220	1	211	242	243
221	1	211	272	273
222	1	212	211	242
223	1	212	211	272
224	1	212	213	214
225	1	213	214	215
226	1	214	215	216
227	1	215	216	217
228	1	216	217	218
229	1	217	218	219
230	1	218	219	220
231	1	219	220	221
232	1	220	221	222
233	1	221	222	223
234	1	222	223	224
235	1	223	224	225
236	1	224	225	226
237	1	225	226	227
238	1	226	227	228
239	1	227	228	229
240	1	228	229	230
241	1	229	230	231
242	1	230	231	232
243	1	231	232	233
244	1	232	233	234
245	1	233	234	235
246	1	234	235	236
247	1	235	236	237
248	1	236	237	238
249	1	237	238	239
250	1	238	239	240
251	1	239	240	241
252	1	242	211	272
253	1	242	243	244
254	1	243	244	245
255	1	244	245	246
256	1	245	246	247
257	1	246	247	248
258	1	247	248	249
259	1	248	249	250
260	1	249	250	251
261	1	250	251	252
262	1	251	252	253
263	1	252	253	254
264	1	253	254	255
265	1	254	255	256
266	1	255	256	257
267	1	256	257	258
268	1	257	258	259
269	1	258	259	260
270	1	259	260	261
271	1	260	261	262
272	1	261	262	263
273	1	262	263	264
274	1	263	264	265
275	1	264	265	266
276	1	265	266	267
277	1	266	267	268
278	1	267	268	269
279	1	268	269	270
280	1	269	270	271
281	1	272	273	274
282	1	273	274	275
283	1	274	275	276
284	1	275	276	277
285	1	276	277	278
286	1	277	278	279
287	1	278	279	280
288	1	279	280	281
289	1	280	281	282
290	1	281	282	283
291	1	282	283	284
292	1	283	284	285
293	1	284	285	286
294	1	285	286	287
295	1	286	287	288
296	1	287	288	289
297	1	288	289	290
298	1	289	290	291
299	1	290	291	292
300	1	291	292	293
301	1	292	293	294
302	1	293	294	295
303	1	294	295	296
304	1	295	296	297
305	1	296	297	298
306	1	297	298	299
307	1	298	299	300
308	1	299	300	301
