bb200nuc3bl50bn4d30tot500V2

501 atoms
500 bonds
508 angles

1 atom types
1 bond types
1 angle types

-1000 1000 xlo xhi
-1000 1000 ylo yhi
-1000 1000 zlo zhi

Masses

1 1

Atoms

1	1	1	0.0	0.0	0.0	0	0	0
2	1	1	0.0	0.0	1.0	0	0	0
3	1	1	0.0	-0.49999999999999994	1.8660254037844388	0	0	0
4	1	1	0.0	0.0	2.7320508075688776	0	0	0
5	1	1	0.0	-0.49999999999999994	3.5980762113533165	0	0	0
6	1	1	0.0	0.0	4.464101615137755	0	0	0
7	1	1	0.0	-0.49999999999999994	5.330127018922194	0	0	0
8	1	1	0.0	0.0	6.196152422706632	0	0	0
9	1	1	0.0	-0.49999999999999994	7.06217782649107	0	0	0
10	1	1	0.0	0.0	7.928203230275509	0	0	0
11	1	1	0.0	-0.49999999999999994	8.794228634059948	0	0	0
12	1	1	0.0	0.0	9.660254037844387	0	0	0
13	1	1	0.0	-0.49999999999999994	10.526279441628827	0	0	0
14	1	1	0.0	0.0	11.392304845413266	0	0	0
15	1	1	0.0	-0.49999999999999994	12.258330249197705	0	0	0
16	1	1	0.0	0.0	13.124355652982144	0	0	0
17	1	1	0.0	-0.49999999999999994	13.990381056766584	0	0	0
18	1	1	0.0	0.0	14.856406460551023	0	0	0
19	1	1	0.0	-0.49999999999999994	15.722431864335462	0	0	0
20	1	1	0.0	0.0	16.5884572681199	0	0	0
21	1	1	0.0	-0.49999999999999994	17.454482671904337	0	0	0
22	1	1	0.0	0.0	18.320508075688775	0	0	0
23	1	1	0.0	-0.49999999999999994	19.186533479473212	0	0	0
24	1	1	0.0	0.0	20.05255888325765	0	0	0
25	1	1	0.0	-0.49999999999999994	20.918584287042087	0	0	0
26	1	1	0.0	0.0	21.784609690826525	0	0	0
27	1	1	0.0	-0.49999999999999994	22.650635094610962	0	0	0
28	1	1	0.0	0.0	23.5166604983954	0	0	0
29	1	1	0.0	-0.49999999999999994	24.382685902179837	0	0	0
30	1	1	0.0	0.0	25.248711305964274	0	0	0
31	1	1	0.0	-0.49999999999999994	26.114736709748712	0	0	0
32	1	1	0.0	0.0	26.98076211353315	0	0	0
33	1	1	0.0	-0.49999999999999994	27.846787517317587	0	0	0
34	1	1	0.0	0.0	28.712812921102024	0	0	0
35	1	1	0.0	-0.49999999999999994	29.578838324886462	0	0	0
36	1	1	0.0	0.0	30.4448637286709	0	0	0
37	1	1	0.0	-0.49999999999999994	31.310889132455337	0	0	0
38	1	1	0.0	0.0	32.17691453623978	0	0	0
39	1	1	0.0	-0.49999999999999994	33.04293994002422	0	0	0
40	1	1	0.0	0.0	33.90896534380866	0	0	0
41	1	1	0.0	-0.49999999999999994	34.7749907475931	0	0	0
42	1	1	0.0	0.0	35.64101615137754	0	0	0
43	1	1	0.0	-0.49999999999999994	36.50704155516198	0	0	0
44	1	1	0.0	0.0	37.373066958946424	0	0	0
45	1	1	0.0	-0.49999999999999994	38.239092362730865	0	0	0
46	1	1	0.0	0.0	39.105117766515306	0	0	0
47	1	1	0.0	-0.49999999999999994	39.97114317029975	0	0	0
48	1	1	0.0	0.0	40.83716857408419	0	0	0
49	1	1	0.0	-0.49999999999999994	41.70319397786863	0	0	0
50	1	1	0.0	0.0	42.56921938165307	0	0	0
51	1	1	0.0	-0.49999999999999994	43.43524478543751	0	0	0
52	1	1	0.052848204757020616	-1.4819709335617046	43.2537505626812	0	0	0
53	1	1	0.1056964095140411	-2.241635596425904	42.60558648835327	0	0	0
54	1	1	0.15854461427106162	-3.1827944820464165	42.93939334758704	0	0	0
55	1	1	0.2113928190280821	-3.9424591449106154	42.29122927325911	0	0	0
56	1	1	0.2642410237851026	-4.883618030531128	42.62503613249289	0	0	0
57	1	1	0.3170892285421231	-5.643282693395327	41.97687205816496	0	0	0
58	1	1	0.36993743329914364	-6.58444157901584	42.31067891739873	0	0	0
59	1	1	0.42278563805616415	-7.344106241880039	41.6625148430708	0	0	0
60	1	1	0.47563384281318466	-8.285265127500551	41.99632170230458	0	0	0
61	1	1	0.5284820475702051	-9.044929790364751	41.34815762797665	0	0	0
62	1	1	0.5813302523272257	-9.986088675985263	41.68196448721042	0	0	0
63	1	1	0.6341784570842461	-10.745753338849461	41.03380041288249	0	0	0
64	1	1	0.6870266618412666	-11.686912224469973	41.36760727211627	0	0	0
65	1	1	0.739874866598287	-12.446576887334171	40.71944319778834	0	0	0
66	1	1	0.7927230713553075	-13.387735772954683	41.05325005702211	0	0	0
67	1	1	0.845571276112328	-14.14740043581888	40.40508598269418	0	0	0
68	1	1	0.8984194808693484	-15.088559321439392	40.73889284192796	0	0	0
69	1	1	0.9512676856263689	-15.84822398430359	40.09072876760003	0	0	0
70	1	1	1.0041158903833893	-16.789382869924104	40.4245356268338	0	0	0
71	1	1	1.0569640951404098	-17.549047532788304	39.77637155250587	0	0	0
72	1	1	1.1098122998974302	-18.490206418408818	40.110178411739646	0	0	0
73	1	1	1.1626605046544507	-19.249871081273017	39.462014337411716	0	0	0
74	1	1	1.2155087094114712	-20.19102996689353	39.79582119664549	0	0	0
75	1	1	1.2683569141684916	-20.95069462975773	39.14765712231756	0	0	0
76	1	1	1.321205118925512	-21.891853515378244	39.481463981551336	0	0	0
77	1	1	1.3740533236825325	-22.651518178242444	38.833299907223406	0	0	0
78	1	1	1.426901528439553	-23.592677063862958	39.16710676645718	0	0	0
79	1	1	1.4797497331965734	-24.352341726727158	38.51894269212925	0	0	0
80	1	1	1.532597937953594	-25.29350061234767	38.852749551363026	0	0	0
81	1	1	1.5854461427106143	-26.05316527521187	38.204585477035096	0	0	0
82	1	1	1.6382943474676348	-26.994324160832385	38.53839233626887	0	0	0
83	1	1	1.6911425522246553	-27.753988823696584	37.89022826194094	0	0	0
84	1	1	1.7439907569816757	-28.695147709317098	38.224035121174715	0	0	0
85	1	1	1.7968389617386962	-29.454812372181298	37.575871046846785	0	0	0
86	1	1	1.8496871664957166	-30.39597125780181	37.90967790608056	0	0	0
87	1	1	1.902535371252737	-31.15563592066601	37.26151383175263	0	0	0
88	1	1	1.9553835760097575	-32.096794806286525	37.595320690986405	0	0	0
89	1	1	2.008231780766778	-32.85645946915072	36.947156616658475	0	0	0
90	1	1	2.061079985523799	-33.79761835477123	37.28096347589225	0	0	0
91	1	1	2.1139281902808196	-34.55728301763543	36.63279940156432	0	0	0
92	1	1	2.1667763950378403	-35.49844190325594	36.966606260798095	0	0	0
93	1	1	2.219624599794861	-36.258106566120134	36.318442186470165	0	0	0
94	1	1	2.2724728045518816	-37.199265451740644	36.65224904570394	0	0	0
95	1	1	2.3253210093089023	-37.95893011460484	36.00408497137601	0	0	0
96	1	1	2.378169214065923	-38.90008900022535	36.337891830609784	0	0	0
97	1	1	2.4310174188229436	-39.659753663089546	35.689727756281854	0	0	0
98	1	1	2.4838656235799643	-40.600912548710056	36.02353461551563	0	0	0
99	1	1	2.536713828336985	-41.36057721157425	35.3753705411877	0	0	0
100	1	1	2.5895620330940057	-42.30173609719476	35.709177400421474	0	0	0
101	1	1	2.6424102378510264	-43.06140076005896	35.061013326093544	0	0	0
102	1	1	-0.841491606323327	-0.2990058312122381	43.93673578296459	0	0	0
103	1	1	-1.6829832126466524	-0.37568527379303973	44.47153681098612	0	0	0
104	1	1	-2.5244748189699777	0.04912628115323936	44.80534367021989	0	0	0
105	1	1	-3.365966425293303	-0.027553161427562284	45.340144698241424	0	0	0
106	1	1	-4.207458031616628	0.39725839351871683	45.67395155747519	0	0	0
107	1	1	-5.048949637939954	0.3205789509379152	46.208752585496725	0	0	0
108	1	1	-5.890441244263279	0.7453905058841943	46.54255944473049	0	0	0
109	1	1	-6.731932850586604	0.6687110633033927	47.07736047275203	0	0	0
110	1	1	-7.57342445690993	1.0935226182496718	47.411167331985794	0	0	0
111	1	1	-8.414916063233255	1.01684317566887	47.94596836000733	0	0	0
112	1	1	-9.25640766955658	1.441654730615149	48.279775219241095	0	0	0
113	1	1	-10.097899275879906	1.3649752880343473	48.81457624726263	0	0	0
114	1	1	-10.93939088220323	1.7897868429806265	49.1483831064964	0	0	0
115	1	1	-11.780882488526556	1.7131074003998248	49.68318413451793	0	0	0
116	1	1	-12.622374094849881	2.137918955346104	50.0169909937517	0	0	0
117	1	1	-13.463865701173207	2.0612395127653023	50.55179202177323	0	0	0
118	1	1	-14.305357307496532	2.4860510677115815	50.885598881007	0	0	0
119	1	1	-15.146848913819857	2.4093716251307797	51.42039990902853	0	0	0
120	1	1	-15.988340520143183	2.834183180077059	51.7542067682623	0	0	0
121	1	1	-16.82983212646651	2.757503737496257	52.28900779628383	0	0	0
122	1	1	-17.671323732789837	3.1823152924425364	52.6228146555176	0	0	0
123	1	1	-18.512815339113164	3.1056358498617347	53.157615683539134	0	0	0
124	1	1	-19.35430694543649	3.530447404808014	53.4914225427729	0	0	0
125	1	1	-20.195798551759818	3.453767962227212	54.026223570794436	0	0	0
126	1	1	-21.037290158083145	3.8785795171734914	54.3600304300282	0	0	0
127	1	1	-21.878781764406472	3.8019000745926896	54.89483145804974	0	0	0
128	1	1	-22.7202733707298	4.226711629538968	55.228638317283504	0	0	0
129	1	1	-23.561764977053127	4.150032186958167	55.76343934530504	0	0	0
130	1	1	-24.403256583376454	4.574843741904446	56.097246204538806	0	0	0
131	1	1	-25.24474818969978	4.498164299323644	56.63204723256034	0	0	0
132	1	1	-26.086239796023108	4.922975854269923	56.96585409179411	0	0	0
133	1	1	-26.927731402346435	4.846296411689122	57.50065511981564	0	0	0
134	1	1	-27.769223008669762	5.271107966635401	57.83446197904941	0	0	0
135	1	1	-28.61071461499309	5.194428524054599	58.36926300707094	0	0	0
136	1	1	-29.452206221316416	5.619240079000878	58.70306986630471	0	0	0
137	1	1	-30.293697827639743	5.542560636420077	59.23787089432624	0	0	0
138	1	1	-31.13518943396307	5.967372191366356	59.57167775356001	0	0	0
139	1	1	-31.976681040286397	5.890692748785554	60.106478781581544	0	0	0
140	1	1	-32.818172646609725	6.315504303731833	60.44028564081531	0	0	0
141	1	1	-33.65966425293305	6.2388248611510315	60.975086668836845	0	0	0
142	1	1	-34.50115585925637	6.663636416097311	61.30889352807061	0	0	0
143	1	1	-35.342647465579695	6.586956973516509	61.843694556092146	0	0	0
144	1	1	-36.18413907190302	7.011768528462788	62.177501415325914	0	0	0
145	1	1	-37.02563067822634	6.9350890858819865	62.71230244334745	0	0	0
146	1	1	-37.867122284549666	7.359900640828266	63.046109302581215	0	0	0
147	1	1	-38.70861389087299	7.283221198247464	63.58091033060275	0	0	0
148	1	1	-39.55010549719631	7.708032753193743	63.914717189836516	0	0	0
149	1	1	-40.391597103519636	7.631353310612941	64.44951821785804	0	0	0
150	1	1	-41.23308870984296	8.05616486555922	64.78332507709182	0	0	0
151	1	1	-42.07458031616628	7.979485422978418	65.31812610511335	0	0	0
152	1	1	0.7886434015663124	-0.2197335240767162	43.98250367082857	0	0	0
153	1	1	1.5772868031326235	-0.2506450787935416	44.59657700598562	0	0	0
154	1	1	2.3659302046989343	0.26570225188068997	44.93038386521939	0	0	0
155	1	1	3.154573606265245	0.23479069716386455	45.54445720037644	0	0	0
156	1	1	3.943217007831556	0.7511380278380961	45.87826405961021	0	0	0
157	1	1	4.731860409397867	0.7202264731212707	46.49233739476726	0	0	0
158	1	1	5.520503810964178	1.2365738037955023	46.82614425400103	0	0	0
159	1	1	6.3091472125304895	1.2056622490786768	47.44021758915808	0	0	0
160	1	1	7.097790614096801	1.7220095797529082	47.77402444839185	0	0	0
161	1	1	7.886434015663112	1.6910980250360828	48.3880977835489	0	0	0
162	1	1	8.675077417229422	2.2074453557103144	48.72190464278267	0	0	0
163	1	1	9.463720818795734	2.176533800993489	49.33597797793972	0	0	0
164	1	1	10.252364220362045	2.6928811316677206	49.66978483717349	0	0	0
165	1	1	11.041007621928356	2.661969576950895	50.28385817233054	0	0	0
166	1	1	11.829651023494668	3.1783169076251268	50.61766503156431	0	0	0
167	1	1	12.618294425060979	3.1474053529083013	51.23173836672136	0	0	0
168	1	1	13.40693782662729	3.663752683582533	51.56554522595513	0	0	0
169	1	1	14.195581228193602	3.6328411288657074	52.17961856111218	0	0	0
170	1	1	14.984224629759913	4.149188459539939	52.513425420345946	0	0	0
171	1	1	15.772868031326224	4.118276904823114	53.127498755503	0	0	0
172	1	1	16.561511432892534	4.634624235497346	53.461305614736766	0	0	0
173	1	1	17.350154834458845	4.603712680780521	54.07537894989382	0	0	0
174	1	1	18.138798236025156	5.120060011454752	54.409185809127585	0	0	0
175	1	1	18.927441637591468	5.089148456737927	55.02325914428464	0	0	0
176	1	1	19.71608503915778	5.605495787412159	55.357066003518405	0	0	0
177	1	1	20.50472844072409	5.574584232695334	55.97113933867546	0	0	0
178	1	1	21.2933718422904	6.0909315633695655	56.304946197909224	0	0	0
179	1	1	22.082015243856713	6.0600200086527405	56.919019533066276	0	0	0
180	1	1	22.870658645423024	6.576367339326972	57.252826392300044	0	0	0
181	1	1	23.659302046989335	6.545455784610147	57.866899727457096	0	0	0
182	1	1	24.447945448555647	7.061803115284379	58.20070658669086	0	0	0
183	1	1	25.236588850121958	7.030891560567554	58.814779921847915	0	0	0
184	1	1	26.02523225168827	7.547238891241785	59.14858678108168	0	0	0
185	1	1	26.81387565325458	7.51632733652496	59.762660116238735	0	0	0
186	1	1	27.602519054820892	8.032674667199192	60.0964669754725	0	0	0
187	1	1	28.391162456387203	8.001763112482367	60.710540310629554	0	0	0
188	1	1	29.179805857953514	8.518110443156598	61.04434716986332	0	0	0
189	1	1	29.968449259519826	8.487198888439773	61.65842050502037	0	0	0
190	1	1	30.757092661086137	9.003546219114003	61.99222736425414	0	0	0
191	1	1	31.54573606265245	8.972634664397178	62.60630069941119	0	0	0
192	1	1	32.334379464218756	9.48898199507141	62.94010755864496	0	0	0
193	1	1	33.12302286578507	9.458070440354584	63.55418089380201	0	0	0
194	1	1	33.91166626735138	9.974417771028815	63.88798775303578	0	0	0
195	1	1	34.70030966891769	9.94350621631199	64.50206108819283	0	0	0
196	1	1	35.488953070484	10.45985354698622	64.8358679474266	0	0	0
197	1	1	36.27759647205031	10.428941992269396	65.44994128258367	0	0	0
198	1	1	37.066239873616624	10.945289322943626	65.78374814181744	0	0	0
199	1	1	37.854883275182935	10.914377768226801	66.3978214769745	0	0	0
200	1	1	38.64352667674925	11.430725098901032	66.73162833620827	0	0	0
201	1	1	39.43217007831556	11.399813544184207	67.34570167136533	0	0	0
202	1	1	39.30882775615265	12.065978379009753	68.08123622827297	0	0	0
203	1	1	39.185485433989754	12.275126770622716	69.05131025732909	0	0	0
204	1	1	39.062143111826856	13.21980971914332	69.35521945155966	0	0	0
205	1	1	38.93880078966396	13.428958110756284	70.32529348061578	0	0	0
206	1	1	38.81545846750106	14.373641059276888	70.62920267484637	0	0	0
207	1	1	38.69211614533816	14.582789450889852	71.59927670390249	0	0	0
208	1	1	38.56877382317526	15.527472399410456	71.90318589813307	0	0	0
209	1	1	38.445431501012365	15.73662079102342	72.8732599271892	0	0	0
210	1	1	38.32208917884947	16.681303739544024	73.17716912141978	0	0	0
211	1	1	38.19874685668657	16.890452131156987	74.1472431504759	0	0	0
212	1	1	38.07540453452367	17.835135079677592	74.45115234470649	0	0	0
213	1	1	37.95206221236077	18.044283471290555	75.42122637376261	0	0	0
214	1	1	37.828719890197874	18.98896641981116	75.72513556799319	0	0	0
215	1	1	37.705377568034976	19.198114811424123	76.69520959704931	0	0	0
216	1	1	37.58203524587208	20.142797759944727	76.9991187912799	0	0	0
217	1	1	37.45869292370918	20.35194615155769	77.96919282033602	0	0	0
218	1	1	37.33535060154628	21.296629100078295	78.2731020145666	0	0	0
219	1	1	37.21200827938338	21.50577749169126	79.24317604362273	0	0	0
220	1	1	37.088665957220485	22.450460440211863	79.54708523785331	0	0	0
221	1	1	36.96532363505759	22.659608831824826	80.51715926690943	0	0	0
222	1	1	36.84198131289469	23.60429178034543	80.82106846114002	0	0	0
223	1	1	36.71863899073179	23.813440171958394	81.79114249019614	0	0	0
224	1	1	36.59529666856889	24.758123120479	82.09505168442672	0	0	0
225	1	1	36.471954346405994	24.967271512091962	83.06512571348284	0	0	0
226	1	1	36.348612024243096	25.911954460612566	83.36903490771343	0	0	0
227	1	1	36.2252697020802	26.12110285222553	84.33910893676955	0	0	0
228	1	1	36.1019273799173	27.065785800746134	84.64301813100013	0	0	0
229	1	1	35.9785850577544	27.274934192359098	85.61309216005625	0	0	0
230	1	1	35.8552427355915	28.219617140879702	85.91700135428684	0	0	0
231	1	1	35.731900413428605	28.428765532492665	86.88707538334296	0	0	0
232	1	1	35.60855809126571	29.37344848101327	87.19098457757354	0	0	0
233	1	1	35.48521576910281	29.582596872626233	88.16105860662967	0	0	0
234	1	1	35.36187344693991	30.527279821146838	88.46496780086025	0	0	0
235	1	1	35.23853112477701	30.7364282127598	89.43504182991637	0	0	0
236	1	1	35.115188802614114	31.681111161280405	89.73895102414696	0	0	0
237	1	1	34.991846480451215	31.89025955289337	90.70902505320308	0	0	0
238	1	1	34.86850415828832	32.83494250141398	91.01293424743366	0	0	0
239	1	1	34.74516183612542	33.04409089302694	91.98300827648978	0	0	0
240	1	1	34.62181951396252	33.98877384154755	92.28691747072037	0	0	0
241	1	1	34.49847719179962	34.19792223316051	93.25699149977649	0	0	0
242	1	1	34.375134869636724	35.14260518168112	93.56090069400707	0	0	0
243	1	1	34.251792547473826	35.35175357329408	94.5309747230632	0	0	0
244	1	1	34.12845022531093	36.29643652181469	94.83488391729378	0	0	0
245	1	1	34.00510790314803	36.505584913427654	95.8049579463499	0	0	0
246	1	1	33.88176558098513	37.45026786194826	96.10886714058049	0	0	0
247	1	1	33.75842325882223	37.659416253561226	97.07894116963661	0	0	0
248	1	1	33.635080936659335	38.604099202081834	97.38285036386719	0	0	0
249	1	1	33.51173861449644	38.8132475936948	98.35292439292331	0	0	0
250	1	1	33.38839629233354	39.757930542215405	98.6568335871539	0	0	0
251	1	1	33.26505397017064	39.96707893382837	99.62690761621002	0	0	0
252	1	1	40.262682035475194	11.619206454934156	66.83372839107861	0	0	0
253	1	1	41.09319399263482	12.065192929197183	66.50004297966643	0	0	0
254	1	1	41.92370594979445	11.999206123173492	65.94696465750431	0	0	0
255	1	1	42.75421790695408	12.445192597436519	65.61327924609213	0	0	0
256	1	1	43.58472986411371	12.379205791412828	65.06020092393001	0	0	0
257	1	1	44.41524182127334	12.825192265675854	64.72651551251784	0	0	0
258	1	1	45.24575377843297	12.759205459652163	64.17343719035571	0	0	0
259	1	1	46.0762657355926	13.20519193391519	63.83975177894354	0	0	0
260	1	1	46.90677769275223	13.139205127891499	63.286673456781415	0	0	0
261	1	1	47.73728964991186	13.585191602154525	62.95298804536924	0	0	0
262	1	1	48.56780160707149	13.519204796130834	62.39990972320712	0	0	0
263	1	1	49.39831356423112	13.965191270393861	62.06622431179494	0	0	0
264	1	1	50.228825521390746	13.89920446437017	61.51314598963282	0	0	0
265	1	1	51.059337478550376	14.345190938633197	61.17946057822064	0	0	0
266	1	1	51.889849435710005	14.279204132609506	60.62638225605852	0	0	0
267	1	1	52.720361392869634	14.725190606872532	60.29269684464634	0	0	0
268	1	1	53.55087335002926	14.659203800848841	59.73961852248422	0	0	0
269	1	1	54.38138530718889	15.105190275111868	59.405933111072045	0	0	0
270	1	1	55.21189726434852	15.039203469088177	58.85285478890992	0	0	0
271	1	1	56.04240922150815	15.485189943351203	58.51916937749775	0	0	0
272	1	1	56.87292117866778	15.419203137327512	57.966091055335625	0	0	0
273	1	1	57.70343313582741	15.865189611590539	57.63240564392345	0	0	0
274	1	1	58.53394509298704	15.799202805566848	57.079327321761326	0	0	0
275	1	1	59.36445705014667	16.245189279829873	56.74564191034915	0	0	0
276	1	1	60.1949690073063	16.179202473806182	56.19256358818703	0	0	0
277	1	1	61.02548096446593	16.62518894806921	55.85887817677485	0	0	0
278	1	1	61.85599292162556	16.559202142045518	55.30579985461273	0	0	0
279	1	1	62.686504878785186	17.005188616308544	54.97211444320055	0	0	0
280	1	1	63.517016835944816	16.939201810284853	54.41903612103843	0	0	0
281	1	1	64.34752879310444	17.38518828454788	54.085350709626255	0	0	0
282	1	1	65.17804075026407	17.31920147852419	53.53227238746413	0	0	0
283	1	1	66.0085527074237	17.765187952787215	53.198586976051956	0	0	0
284	1	1	66.83906466458333	17.699201146763524	52.645508653889834	0	0	0
285	1	1	67.66957662174296	18.14518762102655	52.31182324247766	0	0	0
286	1	1	68.50008857890259	18.07920081500286	51.758744920315536	0	0	0
287	1	1	69.33060053606222	18.525187289265887	51.42505950890336	0	0	0
288	1	1	70.16111249322185	18.459200483242196	50.87198118674124	0	0	0
289	1	1	70.99162445038148	18.905186957505222	50.53829577532906	0	0	0
290	1	1	71.82213640754111	18.83920015148153	49.98521745316694	0	0	0
291	1	1	72.65264836470074	19.285186625744558	49.65153204175476	0	0	0
292	1	1	73.48316032186037	19.219199819720867	49.09845371959264	0	0	0
293	1	1	74.31367227902	19.665186293983894	48.764768308180464	0	0	0
294	1	1	75.14418423617963	19.599199487960203	48.21168998601834	0	0	0
295	1	1	75.97469619333926	20.04518596222323	47.878004574606166	0	0	0
296	1	1	76.80520815049888	19.979199156199538	47.324926252444044	0	0	0
297	1	1	77.63572010765851	20.425185630462565	46.99124084103187	0	0	0
298	1	1	78.46623206481814	20.359198824438874	46.438162518869746	0	0	0
299	1	1	79.29674402197777	20.8051852987019	46.10447710745757	0	0	0
300	1	1	80.1272559791374	20.73919849267821	45.55139878529545	0	0	0
301	1	1	80.95776793629703	21.185184966941236	45.21771337388327	0	0	0
302	1	1	39.51476417411568	10.483300331626541	67.73708606878837	0	0	0
303	1	1	39.59735826991581	9.493884407936001	67.61777829332276	0	0	0
304	1	1	39.679952365715934	8.895852881668496	68.4149837304148	0	0	0
305	1	1	39.76254646151606	7.906436957977955	68.29567595494919	0	0	0
306	1	1	39.845140557316185	7.308405431710451	69.09288139204124	0	0	0
307	1	1	39.92773465311631	6.31898950801991	68.97357361657562	0	0	0
308	1	1	40.010328748916436	5.720957981752406	69.77077905366767	0	0	0
309	1	1	40.09292284471656	4.731542058061865	69.65147127820205	0	0	0
310	1	1	40.17551694051669	4.133510531794361	70.4486767152941	0	0	0
311	1	1	40.25811103631681	3.1440946081038197	70.32936893982848	0	0	0
312	1	1	40.34070513211694	2.5460630818363157	71.12657437692053	0	0	0
313	1	1	40.42329922791706	1.5566471581457748	71.00726660145492	0	0	0
314	1	1	40.50589332371719	0.9586156318782706	71.80447203854696	0	0	0
315	1	1	40.588487419517314	-0.030800291812270286	71.68516426308135	0	0	0
316	1	1	40.67108151531744	-0.6288318180797745	72.4823697001734	0	0	0
317	1	1	40.753675611117565	-1.6182477417703154	72.36306192470778	0	0	0
318	1	1	40.83626970691769	-2.2162792680378196	73.16026736179982	0	0	0
319	1	1	40.918863802717816	-3.2056951917283607	73.04095958633421	0	0	0
320	1	1	41.00145789851794	-3.8037267179958647	73.83816502342626	0	0	0
321	1	1	41.08405199431807	-4.793142641686406	73.71885724796064	0	0	0
322	1	1	41.16664609011819	-5.39117416795391	74.51606268505269	0	0	0
323	1	1	41.24924018591832	-6.380590091644451	74.39675490958707	0	0	0
324	1	1	41.33183428171844	-6.978621617911955	75.19396034667912	0	0	0
325	1	1	41.41442837751857	-7.968037541602496	75.0746525712135	0	0	0
326	1	1	41.497022473318694	-8.56606906787	75.87185800830555	0	0	0
327	1	1	41.57961656911882	-9.55548499156054	75.75255023283994	0	0	0
328	1	1	41.662210664918945	-10.153516517828045	76.54975566993198	0	0	0
329	1	1	41.74480476071907	-11.142932441518585	76.43044789446637	0	0	0
330	1	1	41.827398856519196	-11.74096396778609	77.22765333155841	0	0	0
331	1	1	41.90999295231932	-12.73037989147663	77.1083455560928	0	0	0
332	1	1	41.99258704811945	-13.328411417744135	77.90555099318485	0	0	0
333	1	1	42.07518114391957	-14.317827341434676	77.78624321771923	0	0	0
334	1	1	42.1577752397197	-14.91585886770218	78.58344865481128	0	0	0
335	1	1	42.24036933551982	-15.90527479139272	78.46414087934566	0	0	0
336	1	1	42.32296343131995	-16.503306317660225	79.26134631643771	0	0	0
337	1	1	42.405557527120074	-17.492722241350766	79.1420385409721	0	0	0
338	1	1	42.4881516229202	-18.09075376761827	79.93924397806414	0	0	0
339	1	1	42.570745718720325	-19.08016969130881	79.81993620259853	0	0	0
340	1	1	42.65333981452045	-19.678201217576316	80.61714163969057	0	0	0
341	1	1	42.735933910320576	-20.667617141266856	80.49783386422496	0	0	0
342	1	1	42.8185280061207	-21.26564866753436	81.295039301317	0	0	0
343	1	1	42.901122101920826	-22.2550645912249	81.17573152585139	0	0	0
344	1	1	42.98371619772095	-22.853096117492406	81.97293696294344	0	0	0
345	1	1	43.06631029352108	-23.842512041182946	81.85362918747782	0	0	0
346	1	1	43.1489043893212	-24.44054356745045	82.65083462456987	0	0	0
347	1	1	43.23149848512133	-25.42995949114099	82.53152684910425	0	0	0
348	1	1	43.314092580921454	-26.027991017408496	83.3287322861963	0	0	0
349	1	1	43.39668667672158	-27.017406941099036	83.20942451073068	0	0	0
350	1	1	43.479280772521705	-27.61543846736654	84.00662994782273	0	0	0
351	1	1	43.56187486832183	-28.60485439105708	83.88732217235712	0	0	0
352	1	1	42.65002816145971	-29.01211402648542	83.83560010225662	0	0	0
353	1	1	41.73818145459759	-29.3389501816521	83.58717765789909	0	0	0
354	1	1	40.826334747735466	-29.71750840691928	83.7460148489699	0	0	0
355	1	1	39.914488040873344	-30.044344562085957	83.49759240461238	0	0	0
356	1	1	39.00264133401122	-30.422902787353138	83.65642959568319	0	0	0
357	1	1	38.0907946271491	-30.749738942519816	83.40800715132566	0	0	0
358	1	1	37.17894792028698	-31.128297167786997	83.56684434239648	0	0	0
359	1	1	36.26710121342486	-31.455133322953674	83.31842189803895	0	0	0
360	1	1	35.35525450656274	-31.833691548220855	83.47725908910977	0	0	0
361	1	1	34.443407799700616	-32.16052770338754	83.22883664475223	0	0	0
362	1	1	33.531561092838494	-32.53908592865472	83.38767383582305	0	0	0
363	1	1	32.61971438597637	-32.8659220838214	83.13925139146552	0	0	0
364	1	1	31.70786767911425	-33.24448030908859	83.29808858253634	0	0	0
365	1	1	30.79602097225213	-33.57131646425527	83.04966613817881	0	0	0
366	1	1	29.88417426539001	-33.94987468952245	83.20850332924962	0	0	0
367	1	1	28.972327558527887	-34.276710844689134	82.9600808848921	0	0	0
368	1	1	28.060480851665766	-34.65526906995632	83.11891807596291	0	0	0
369	1	1	27.148634144803644	-34.982105225123	82.87049563160538	0	0	0
370	1	1	26.236787437941523	-35.360663450390184	83.0293328226762	0	0	0
371	1	1	25.3249407310794	-35.687499605556866	82.78091037831867	0	0	0
372	1	1	24.41309402421728	-36.06605783082405	82.93974756938948	0	0	0
373	1	1	23.50124731735516	-36.39289398599073	82.69132512503195	0	0	0
374	1	1	22.589400610493037	-36.771452211257916	82.85016231610277	0	0	0
375	1	1	21.677553903630915	-37.0982883664246	82.60173987174524	0	0	0
376	1	1	20.765707196768794	-37.47684659169178	82.76057706281605	0	0	0
377	1	1	19.853860489906673	-37.80368274685846	82.51215461845852	0	0	0
378	1	1	18.94201378304455	-38.18224097212565	82.67099180952934	0	0	0
379	1	1	18.03016707618243	-38.50907712729233	82.42256936517181	0	0	0
380	1	1	17.11832036932031	-38.88763535255951	82.58140655624263	0	0	0
381	1	1	16.206473662458187	-39.214471507726195	82.3329841118851	0	0	0
382	1	1	15.294626955596065	-39.59302973299338	82.49182130295591	0	0	0
383	1	1	14.382780248733944	-39.91986588816006	82.24339885859838	0	0	0
384	1	1	13.470933541871823	-40.298424113427245	82.4022360496692	0	0	0
385	1	1	12.559086835009701	-40.62526026859393	82.15381360531167	0	0	0
386	1	1	11.64724012814758	-41.00381849386111	82.31265079638248	0	0	0
387	1	1	10.735393421285458	-41.33065464902779	82.06422835202495	0	0	0
388	1	1	9.823546714423337	-41.70921287429498	82.22306554309577	0	0	0
389	1	1	8.911700007561215	-42.03604902946166	81.97464309873824	0	0	0
390	1	1	7.999853300699094	-42.41460725472884	82.13348028980906	0	0	0
391	1	1	7.0880065938369725	-42.741443409895524	81.88505784545153	0	0	0
392	1	1	6.176159886974851	-43.12000163516271	82.04389503652234	0	0	0
393	1	1	5.26431318011273	-43.44683779032939	81.79547259216481	0	0	0
394	1	1	4.352466473250608	-43.825396015596574	81.95430978323563	0	0	0
395	1	1	3.4406197663884868	-44.152232170763256	81.7058873388781	0	0	0
396	1	1	2.5287730595263653	-44.53079039603044	81.86472452994892	0	0	0
397	1	1	1.616926352664244	-44.85762655119712	81.61630208559139	0	0	0
398	1	1	0.7050796458021225	-45.236184776464306	81.7751392766622	0	0	0
399	1	1	-0.20676706105999898	-45.56302093163099	81.52671683230467	0	0	0
400	1	1	-1.1186137679221204	-45.94157915689817	81.68555402337549	0	0	0
401	1	1	-2.030460474784242	-46.26841531206485	81.43713157901796	0	0	0
402	1	1	44.056914914431225	-28.99455016474323	84.6638996357947	0	0	0
403	1	1	44.55195496054062	-29.720325336221663	85.14158756029506	0	0	0
404	1	1	45.046995006650015	-29.669523044262505	86.00897125848158	0	0	0
405	1	1	45.54203505275941	-30.395298215740937	86.48665918298194	0	0	0
406	1	1	46.037075098868804	-30.34449592378178	87.35404288116845	0	0	0
407	1	1	46.5321151449782	-31.07027109526021	87.83173080566881	0	0	0
408	1	1	47.027155191087594	-31.019468803301052	88.69911450385533	0	0	0
409	1	1	47.52219523719699	-31.745243974779484	89.17680242835569	0	0	0
410	1	1	48.017235283306384	-31.694441682820326	90.0441861265422	0	0	0
411	1	1	48.51227532941578	-32.42021685429876	90.52187405104256	0	0	0
412	1	1	49.007315375525174	-32.3694145623396	91.38925774922907	0	0	0
413	1	1	49.50235542163457	-33.09518973381803	91.86694567372943	0	0	0
414	1	1	49.997395467743964	-33.04438744185887	92.73432937191595	0	0	0
415	1	1	50.49243551385336	-33.770162613337305	93.2120172964163	0	0	0
416	1	1	50.98747555996275	-33.71936032137815	94.07940099460282	0	0	0
417	1	1	51.48251560607215	-34.44513549285658	94.55708891910318	0	0	0
418	1	1	51.97755565218154	-34.39433320089742	95.4244726172897	0	0	0
419	1	1	52.47259569829094	-35.12010837237585	95.90216054179005	0	0	0
420	1	1	52.96763574440033	-35.069306080416695	96.76954423997657	0	0	0
421	1	1	53.46267579050973	-35.79508125189513	97.24723216447693	0	0	0
422	1	1	53.95771583661912	-35.74427895993597	98.11461586266344	0	0	0
423	1	1	54.45275588272852	-36.4700541314144	98.5923037871638	0	0	0
424	1	1	54.94779592883791	-36.41925183945524	99.45968748535032	0	0	0
425	1	1	55.44283597494731	-37.145027010933674	99.93737540985067	0	0	0
426	1	1	55.9378760210567	-37.094224718974516	100.80475910803719	0	0	0
427	1	1	56.4329160671661	-37.81999989045295	101.28244703253755	0	0	0
428	1	1	56.92795611327549	-37.76919759849379	102.14983073072406	0	0	0
429	1	1	57.42299615938489	-38.49497276997222	102.62751865522442	0	0	0
430	1	1	57.91803620549428	-38.44417047801306	103.49490235341094	0	0	0
431	1	1	58.41307625160368	-39.169945649491495	103.9725902779113	0	0	0
432	1	1	58.90811629771307	-39.11914335753234	104.83997397609781	0	0	0
433	1	1	59.40315634382247	-39.84491852901077	105.31766190059817	0	0	0
434	1	1	59.89819638993186	-39.79411623705161	106.18504559878468	0	0	0
435	1	1	60.393236436041256	-40.51989140853004	106.66273352328504	0	0	0
436	1	1	60.88827648215065	-40.469089116570885	107.53011722147156	0	0	0
437	1	1	61.383316528260046	-41.19486428804932	108.00780514597191	0	0	0
438	1	1	61.87835657436944	-41.14406199609016	108.87518884415843	0	0	0
439	1	1	62.373396620478836	-41.86983716756859	109.35287676865879	0	0	0
440	1	1	62.86843666658823	-41.81903487560943	110.2202604668453	0	0	0
441	1	1	63.363476712697626	-42.544810047087864	110.69794839134566	0	0	0
442	1	1	63.85851675880702	-42.494007755128706	111.56533208953218	0	0	0
443	1	1	64.35355680491641	-43.21978292660714	112.04302001403254	0	0	0
444	1	1	64.8485968510258	-43.16898063464798	112.91040371221905	0	0	0
445	1	1	65.3436368971352	-43.89475580612641	113.38809163671941	0	0	0
446	1	1	65.8386769432446	-43.843953514167254	114.25547533490592	0	0	0