bb240nuc3bl60bn4d30tot600V2

601 atoms
600 bonds
608 angles

1 atom types
1 bond types
1 angle types

-1000 1000 xlo xhi
-1000 1000 ylo yhi
-1000 1000 zlo zhi

Masses

1 1

Atoms

1	1	1	0.0	0.0	0.0	0	0	0
2	1	1	0.0	0.0	1.0	0	0	0
3	1	1	0.0	-0.49999999999999994	1.8660254037844388	0	0	0
4	1	1	0.0	0.0	2.7320508075688776	0	0	0
5	1	1	0.0	-0.49999999999999994	3.5980762113533165	0	0	0
6	1	1	0.0	0.0	4.464101615137755	0	0	0
7	1	1	0.0	-0.49999999999999994	5.330127018922194	0	0	0
8	1	1	0.0	0.0	6.196152422706632	0	0	0
9	1	1	0.0	-0.49999999999999994	7.06217782649107	0	0	0
10	1	1	0.0	0.0	7.928203230275509	0	0	0
11	1	1	0.0	-0.49999999999999994	8.794228634059948	0	0	0
12	1	1	0.0	0.0	9.660254037844387	0	0	0
13	1	1	0.0	-0.49999999999999994	10.526279441628827	0	0	0
14	1	1	0.0	0.0	11.392304845413266	0	0	0
15	1	1	0.0	-0.49999999999999994	12.258330249197705	0	0	0
16	1	1	0.0	0.0	13.124355652982144	0	0	0
17	1	1	0.0	-0.49999999999999994	13.990381056766584	0	0	0
18	1	1	0.0	0.0	14.856406460551023	0	0	0
19	1	1	0.0	-0.49999999999999994	15.722431864335462	0	0	0
20	1	1	0.0	0.0	16.5884572681199	0	0	0
21	1	1	0.0	-0.49999999999999994	17.454482671904337	0	0	0
22	1	1	0.0	0.0	18.320508075688775	0	0	0
23	1	1	0.0	-0.49999999999999994	19.186533479473212	0	0	0
24	1	1	0.0	0.0	20.05255888325765	0	0	0
25	1	1	0.0	-0.49999999999999994	20.918584287042087	0	0	0
26	1	1	0.0	0.0	21.784609690826525	0	0	0
27	1	1	0.0	-0.49999999999999994	22.650635094610962	0	0	0
28	1	1	0.0	0.0	23.5166604983954	0	0	0
29	1	1	0.0	-0.49999999999999994	24.382685902179837	0	0	0
30	1	1	0.0	0.0	25.248711305964274	0	0	0
31	1	1	0.0	-0.49999999999999994	26.114736709748712	0	0	0
32	1	1	0.0	0.0	26.98076211353315	0	0	0
33	1	1	0.0	-0.49999999999999994	27.846787517317587	0	0	0
34	1	1	0.0	0.0	28.712812921102024	0	0	0
35	1	1	0.0	-0.49999999999999994	29.578838324886462	0	0	0
36	1	1	0.0	0.0	30.4448637286709	0	0	0
37	1	1	0.0	-0.49999999999999994	31.310889132455337	0	0	0
38	1	1	0.0	0.0	32.17691453623978	0	0	0
39	1	1	0.0	-0.49999999999999994	33.04293994002422	0	0	0
40	1	1	0.0	0.0	33.90896534380866	0	0	0
41	1	1	0.0	-0.49999999999999994	34.7749907475931	0	0	0
42	1	1	0.0	0.0	35.64101615137754	0	0	0
43	1	1	0.0	-0.49999999999999994	36.50704155516198	0	0	0
44	1	1	0.0	0.0	37.373066958946424	0	0	0
45	1	1	0.0	-0.49999999999999994	38.239092362730865	0	0	0
46	1	1	0.0	0.0	39.105117766515306	0	0	0
47	1	1	0.0	-0.49999999999999994	39.97114317029975	0	0	0
48	1	1	0.0	0.0	40.83716857408419	0	0	0
49	1	1	0.0	-0.49999999999999994	41.70319397786863	0	0	0
50	1	1	0.0	0.0	42.56921938165307	0	0	0
51	1	1	0.0	-0.49999999999999994	43.43524478543751	0	0	0
52	1	1	0.0	0.0	44.30127018922195	0	0	0
53	1	1	0.0	-0.49999999999999994	45.16729559300639	0	0	0
54	1	1	0.0	0.0	46.033320996790835	0	0	0
55	1	1	0.0	-0.49999999999999994	46.899346400575276	0	0	0
56	1	1	0.0	0.0	47.76537180435972	0	0	0
57	1	1	0.0	-0.49999999999999994	48.63139720814416	0	0	0
58	1	1	0.0	0.0	49.4974226119286	0	0	0
59	1	1	0.0	-0.49999999999999994	50.36344801571304	0	0	0
60	1	1	0.0	0.0	51.22947341949748	0	0	0
61	1	1	0.0	-0.49999999999999994	52.09549882328192	0	0	0
62	1	1	-0.8458154525051773	-0.3065190504132865	52.592652061680795	0	0	0
63	1	1	-1.691630905010353	-0.3875362521222941	53.11993987050128	0	0	0
64	1	1	-2.537446357515529	0.028599784567573283	53.453746729735045	0	0	0
65	1	1	-3.383261810020705	-0.05241741714143433	53.98103453855553	0	0	0
66	1	1	-4.22907726252588	0.36371861954843304	54.314841397789294	0	0	0
67	1	1	-5.074892715031056	0.28270141783942543	54.842129206609776	0	0	0
68	1	1	-5.920708167536231	0.6988374545292928	55.175936065843544	0	0	0
69	1	1	-6.766523620041407	0.6178202528202852	55.703223874664026	0	0	0
70	1	1	-7.6123390725465825	1.0339562895101526	56.037030733897794	0	0	0
71	1	1	-8.458154525051759	0.952939087801145	56.564318542718276	0	0	0
72	1	1	-9.303969977556935	1.3690751244910124	56.89812540195204	0	0	0
73	1	1	-10.149785430062112	1.2880579227820048	57.425413210772525	0	0	0
74	1	1	-10.995600882567288	1.7041939594718722	57.75922007000629	0	0	0
75	1	1	-11.841416335072465	1.6231767577628646	58.286507878826775	0	0	0
76	1	1	-12.687231787577641	2.039312794452732	58.62031473806054	0	0	0
77	1	1	-13.533047240082817	1.9582955927437242	59.147602546881025	0	0	0
78	1	1	-14.378862692587994	2.3744316294335914	59.48140940611479	0	0	0
79	1	1	-15.22467814509317	2.293414427724584	60.008697214935275	0	0	0
80	1	1	-16.070493597598347	2.7095504644144515	60.34250407416904	0	0	0
81	1	1	-16.91630905010352	2.628533262705444	60.869791882989524	0	0	0
82	1	1	-17.762124502608696	3.0446692993953115	61.20359874222329	0	0	0
83	1	1	-18.60793995511387	2.963652097686304	61.730886551043774	0	0	0
84	1	1	-19.453755407619045	3.3797881343761715	62.06469341027754	0	0	0
85	1	1	-20.29957086012422	3.298770932667164	62.591981219098024	0	0	0
86	1	1	-21.145386312629395	3.7149069693570316	62.92578807833179	0	0	0
87	1	1	-21.99120176513457	3.633889767648024	63.45307588715227	0	0	0
88	1	1	-22.837017217639744	4.050025804337891	63.78688274638604	0	0	0
89	1	1	-23.68283267014492	3.9690086026288833	64.31417055520653	0	0	0
90	1	1	-24.528648122650093	4.38514463931875	64.6479774144403	0	0	0
91	1	1	-25.374463575155268	4.3041274376097425	65.1752652232608	0	0	0
92	1	1	-26.220279027660442	4.7202634742996095	65.50907208249457	0	0	0
93	1	1	-27.066094480165617	4.639246272590602	66.03635989131506	0	0	0
94	1	1	-27.911909932670792	5.055382309280469	66.37016675054883	0	0	0
95	1	1	-28.757725385175966	4.974365107571461	66.89745455936932	0	0	0
96	1	1	-29.60354083768114	5.390501144261328	67.2312614186031	0	0	0
97	1	1	-30.449356290186316	5.30948394255232	67.75854922742359	0	0	0
98	1	1	-31.29517174269149	5.725619979242187	68.09235608665736	0	0	0
99	1	1	-32.140987195196665	5.644602777533179	68.61964389547785	0	0	0
100	1	1	-32.98680264770184	6.060738814223046	68.95345075471162	0	0	0
101	1	1	-33.83261810020702	5.979721612514038	69.48073856353211	0	0	0
102	1	1	-34.6784335527122	6.395857649203905	69.81454542276589	0	0	0
103	1	1	-35.52424900521738	6.314840447494897	70.34183323158638	0	0	0
104	1	1	-36.370064457722556	6.730976484184764	70.67564009082015	0	0	0
105	1	1	-37.215879910227734	6.6499592824757565	71.20292789964064	0	0	0
106	1	1	-38.06169536273291	7.0660953191656235	71.53673475887442	0	0	0
107	1	1	-38.90751081523809	6.985078117456616	72.0640225676949	0	0	0
108	1	1	-39.75332626774327	7.401214154146483	72.39782942692868	0	0	0
109	1	1	-40.59914172024845	7.320196952437475	72.92511723574917	0	0	0
110	1	1	-41.444957172753625	7.736332989127342	73.25892409498294	0	0	0
111	1	1	-42.2907726252588	7.655315787418334	73.78621190380343	0	0	0
112	1	1	-43.13658807776398	8.071451824108202	74.12001876303721	0	0	0
113	1	1	-43.98240353026916	7.990434622399194	74.6473065718577	0	0	0
114	1	1	-44.82821898277434	8.406570659089061	74.98111343109147	0	0	0
115	1	1	-45.674034435279516	8.325553457380053	75.50840123991196	0	0	0
116	1	1	-46.519849887784694	8.74168949406992	75.84220809914574	0	0	0
117	1	1	-47.36566534028987	8.660672292360912	76.36949590796623	0	0	0
118	1	1	-48.21148079279505	9.07680832905078	76.7033027672	0	0	0
119	1	1	-49.05729624530023	8.995791127341771	77.23059057602049	0	0	0
120	1	1	-49.90311169780541	9.411927164031638	77.56439743525426	0	0	0
121	1	1	-50.748927150310585	9.33090996232263	78.09168524407475	0	0	0
122	1	1	0.7832921054561894	-0.21273402983980422	52.64679886855485	0	0	0
123	1	1	1.5665842109123775	-0.23960442467475726	53.26787169794882	0	0	0
124	1	1	2.3498763163685656	0.284825225763219	53.60167855718259	0	0	0
125	1	1	3.1331684218247537	0.25795483092826593	54.222751386576554	0	0	0
126	1	1	3.916460527280942	0.7823844813662422	54.55655824581032	0	0	0
127	1	1	4.6997526327371295	0.7555140865312892	55.17763107520429	0	0	0
128	1	1	5.483044738193318	1.2799437369692654	55.51143793443806	0	0	0
129	1	1	6.266336843649506	1.2530733421343123	56.13251076383202	0	0	0
130	1	1	7.049628949105694	1.7775029925722885	56.46631762306579	0	0	0
131	1	1	7.832921054561882	1.7506325977373354	57.08739045245976	0	0	0
132	1	1	8.61621316001807	2.2750622481753116	57.421197311693525	0	0	0
133	1	1	9.399505265474257	2.2481918533403586	58.04227014108749	0	0	0
134	1	1	10.182797370930444	2.772621503778335	58.37607700032126	0	0	0
135	1	1	10.966089476386632	2.745751108943382	58.99714982971523	0	0	0
136	1	1	11.749381581842819	3.2701807593813585	59.330956688948994	0	0	0
137	1	1	12.532673687299006	3.2433103645464056	59.95202951834296	0	0	0
138	1	1	13.315965792755193	3.767740014984382	60.28583637757673	0	0	0
139	1	1	14.09925789821138	3.740869620149429	60.906909206970695	0	0	0
140	1	1	14.882550003667568	4.2652992705874055	61.24071606620446	0	0	0
141	1	1	15.665842109123755	4.238428875752453	61.86178889559843	0	0	0
142	1	1	16.449134214579942	4.762858526190429	62.1955957548322	0	0	0
143	1	1	17.23242632003613	4.735988131355476	62.816668584226164	0	0	0
144	1	1	18.015718425492317	5.260417781793452	63.15047544345993	0	0	0
145	1	1	18.799010530948504	5.233547386958499	63.7715482728539	0	0	0
146	1	1	19.58230263640469	5.757977037396475	64.10535513208767	0	0	0
147	1	1	20.36559474186088	5.731106642561522	64.72642796148163	0	0	0
148	1	1	21.148886847317065	6.255536292999498	65.06023482071541	0	0	0
149	1	1	21.932178952773253	6.228665898164545	65.68130765010937	0	0	0
150	1	1	22.71547105822944	6.753095548602521	66.01511450934315	0	0	0
151	1	1	23.498763163685627	6.726225153767568	66.63618733873712	0	0	0
152	1	1	24.282055269141814	7.250654804205544	66.96999419797089	0	0	0
153	1	1	25.065347374598	7.223784409370591	67.59106702736486	0	0	0
154	1	1	25.84863948005419	7.748214059808567	67.92487388659863	0	0	0
155	1	1	26.631931585510376	7.721343664973614	68.5459467159926	0	0	0
156	1	1	27.415223690966563	8.24577331541159	68.87975357522637	0	0	0
157	1	1	28.19851579642275	8.218902920576637	69.50082640462034	0	0	0
158	1	1	28.981807901878938	8.743332571014614	69.83463326385412	0	0	0
159	1	1	29.765100007335125	8.716462176179661	70.45570609324808	0	0	0
160	1	1	30.548392112791312	9.240891826617638	70.78951295248186	0	0	0
161	1	1	31.3316842182475	9.214021431782685	71.41058578187582	0	0	0
162	1	1	32.11497632370369	9.738451082220662	71.7443926411096	0	0	0
163	1	1	32.89826842915988	9.711580687385709	72.36546547050357	0	0	0
164	1	1	33.68156053461607	10.236010337823686	72.69927232973734	0	0	0
165	1	1	34.46485264007226	10.209139942988733	73.3203451591313	0	0	0
166	1	1	35.24814474552845	10.73356959342671	73.65415201836508	0	0	0
167	1	1	36.03143685098464	10.706699198591757	74.27522484775905	0	0	0
168	1	1	36.81472895644083	11.231128849029734	74.60903170699282	0	0	0
169	1	1	37.59802106189702	11.20425845419478	75.23010453638679	0	0	0
170	1	1	38.38131316735321	11.728688104632758	75.56391139562056	0	0	0
171	1	1	39.1646052728094	11.701817709797805	76.18498422501453	0	0	0
172	1	1	39.947897378265594	12.226247360235782	76.5187910842483	0	0	0
173	1	1	40.731189483721785	12.199376965400829	77.13986391364227	0	0	0
174	1	1	41.514481589177976	12.723806615838805	77.47367077287605	0	0	0
175	1	1	42.29777369463417	12.696936221003853	78.09474360227001	0	0	0
176	1	1	43.08106580009036	13.22136587144183	78.42855046150379	0	0	0
177	1	1	43.86435790554655	13.194495476606876	79.04962329089776	0	0	0
178	1	1	44.64765001100274	13.718925127044853	79.38343015013153	0	0	0
179	1	1	45.43094211645893	13.6920547322099	80.0045029795255	0	0	0
180	1	1	46.21423422191512	14.216484382647877	80.33830983875927	0	0	0
181	1	1	46.99752632737131	14.189613987812924	80.95938266815324	0	0	0
182	1	1	0.06252334704898216	-1.4814572085975686	51.91430119977194	0	0	0
183	1	1	0.1250466940979642	-2.2408252722154347	51.26665085040815	0	0	0
184	1	1	0.18757004114694625	-3.1813909593432808	51.60045770964192	0	0	0
185	1	1	0.2500933881959283	-3.9407590229611467	50.95280736027813	0	0	0
186	1	1	0.31261673524491035	-4.881324710088993	51.286614219511904	0	0	0
187	1	1	0.3751400822938924	-5.640692773706859	50.63896387014811	0	0	0
188	1	1	0.43766342934287444	-6.581258460834706	50.972770729381885	0	0	0
189	1	1	0.5001867763918565	-7.3406265244525715	50.32512038001809	0	0	0
190	1	1	0.5627101234408385	-8.281192211580418	50.65892723925187	0	0	0
191	1	1	0.6252334704898206	-9.040560275198285	50.01127688988807	0	0	0
192	1	1	0.6877568175388027	-9.98112596232613	50.34508374912185	0	0	0
193	1	1	0.7502801645877848	-10.740494025943997	49.697433399758054	0	0	0
194	1	1	0.8128035116367669	-11.681059713071843	50.03124025899183	0	0	0
195	1	1	0.875326858685749	-12.44042777668971	49.383589909628036	0	0	0
196	1	1	0.9378502057347311	-13.380993463817555	49.71739676886181	0	0	0
197	1	1	1.0003735527837132	-14.140361527435422	49.06974641949802	0	0	0
198	1	1	1.0628968998326953	-15.080927214563268	49.40355327873179	0	0	0
199	1	1	1.1254202468816774	-15.840295278181134	48.755902929368	0	0	0
200	1	1	1.1879435939306595	-16.78086096530898	49.08970978860177	0	0	0
201	1	1	1.2504669409796416	-17.54022902892685	48.44205943923798	0	0	0
202	1	1	1.3129902880286237	-18.480794716054696	48.775866298471755	0	0	0
203	1	1	1.3755136350776058	-19.240162779672563	48.12821594910796	0	0	0
204	1	1	1.438036982126588	-20.18072846680041	48.462022808341736	0	0	0
205	1	1	1.50056032917557	-20.940096530418277	47.81437245897794	0	0	0
206	1	1	1.5630836762245521	-21.880662217546124	48.14817931821172	0	0	0
207	1	1	1.6256070232735342	-22.64003028116399	47.500528968847924	0	0	0
208	1	1	1.6881303703225163	-23.58059596829184	47.8343358280817	0	0	0
209	1	1	1.7506537173714984	-24.339964031909705	47.186685478717905	0	0	0
210	1	1	1.8131770644204805	-25.280529719037553	47.52049233795168	0	0	0
211	1	1	1.8757004114694626	-26.03989778265542	46.872841988587886	0	0	0
212	1	1	1.9382237585184448	-26.980463469783267	47.20664884782166	0	0	0
213	1	1	2.000747105567427	-27.739831533401134	46.55899849845787	0	0	0
214	1	1	2.063270452616409	-28.68039722052898	46.89280535769164	0	0	0
215	1	1	2.125793799665391	-29.439765284146848	46.24515500832785	0	0	0
216	1	1	2.188317146714373	-30.380330971274695	46.578961867561624	0	0	0
217	1	1	2.2508404937633553	-31.139699034892562	45.93131151819783	0	0	0
218	1	1	2.3133638408123374	-32.08026472202041	46.265118377431605	0	0	0
219	1	1	2.3758871878613195	-32.83963278563827	45.61746802806781	0	0	0
220	1	1	2.4384105349103016	-33.780198472766116	45.95127488730159	0	0	0
221	1	1	2.5009338819592837	-34.53956653638398	45.30362453793779	0	0	0
222	1	1	2.563457229008266	-35.48013222351182	45.63743139717157	0	0	0
223	1	1	2.625980576057248	-36.23950028712969	44.989781047807774	0	0	0
224	1	1	2.68850392310623	-37.18006597425753	45.32358790704155	0	0	0
225	1	1	2.751027270155212	-37.939434037875394	44.675937557677756	0	0	0
226	1	1	2.813550617204194	-38.87999972500324	45.00974441691153	0	0	0
227	1	1	2.8760739642531763	-39.6393677886211	44.36209406754774	0	0	0
228	1	1	2.9385973113021584	-40.579933475748945	44.69590092678151	0	0	0
229	1	1	3.0011206583511405	-41.33930153936681	44.04825057741772	0	0	0
230	1	1	3.0636440054001226	-42.27986722649465	44.38205743665149	0	0	0
231	1	1	3.1261673524491047	-43.039235290112515	43.7344070872877	0	0	0
232	1	1	3.188690699498087	-43.97980097724036	44.068213946521475	0	0	0
233	1	1	3.251214046547069	-44.73916904085822	43.42056359715768	0	0	0
234	1	1	3.313737393596051	-45.679734727986066	43.754370456391456	0	0	0
235	1	1	3.376260740645033	-46.43910279160393	43.10672010702766	0	0	0
236	1	1	3.4387840876940152	-47.37966847873177	43.44052696626144	0	0	0
237	1	1	3.5013074347429973	-48.139036542349636	42.792876616897644	0	0	0
238	1	1	3.5638307817919794	-49.07960222947748	43.12668347613142	0	0	0
239	1	1	3.6263541288409615	-49.83897029309534	42.479033126767625	0	0	0
240	1	1	3.6888774758899436	-50.77953598022319	42.8128399860014	0	0	0
241	1	1	3.7514008229389257	-51.53890404384105	42.165189636637606	0	0	0
242	1	1	4.525043152796067	-51.38960251024627	41.54940834630844	0	0	0
243	1	1	5.298685482653209	-50.95241294416463	41.09077687250561	0	0	0
244	1	1	6.072327812510352	-51.13100466841216	40.482843865107995	0	0	0
245	1	1	6.845970142367494	-50.69381510233052	40.02421239130516	0	0	0
246	1	1	7.619612472224636	-50.87240682657805	39.41627938390755	0	0	0
247	1	1	8.39325480208178	-50.43521726049641	38.95764791010472	0	0	0
248	1	1	9.166897131938923	-50.61380898474394	38.349714902707106	0	0	0
249	1	1	9.940539461796066	-50.1766194186623	37.891083428904274	0	0	0
250	1	1	10.714181791653209	-50.35521114290983	37.28315042150666	0	0	0
251	1	1	11.487824121510352	-49.91802157682819	36.82451894770383	0	0	0
252	1	1	12.261466451367495	-50.09661330107572	36.21658594030622	0	0	0
253	1	1	13.035108781224638	-49.65942373499408	35.757954466503385	0	0	0
254	1	1	13.808751111081781	-49.83801545924161	35.15002145910577	0	0	0
255	1	1	14.582393440938924	-49.40082589315997	34.69138998530294	0	0	0
256	1	1	15.356035770796067	-49.5794176174075	34.08345697790533	0	0	0
257	1	1	16.12967810065321	-49.14222805132586	33.624825504102496	0	0	0
258	1	1	16.90332043051035	-49.32081977557339	33.016892496704884	0	0	0
259	1	1	17.676962760367495	-48.88363020949175	32.55826102290205	0	0	0
260	1	1	18.450605090224638	-49.06222193373928	31.95032801550444	0	0	0
261	1	1	19.22424742008178	-48.62503236765764	31.491696541701607	0	0	0
262	1	1	19.997889749938924	-48.80362409190517	30.883763534303995	0	0	0
263	1	1	20.771532079796067	-48.36643452582353	30.425132060501163	0	0	0
264	1	1	21.54517440965321	-48.54502625007106	29.81719905310355	0	0	0
265	1	1	22.318816739510353	-48.10783668398942	29.35856757930072	0	0	0
266	1	1	23.092459069367496	-48.28642840823695	28.750634571903106	0	0	0
267	1	1	23.86610139922464	-47.84923884215531	28.292003098100274	0	0	0
268	1	1	24.639743729081783	-48.02783056640284	27.68407009070266	0	0	0
269	1	1	25.413386058938926	-47.5906410003212	27.22543861689983	0	0	0
270	1	1	26.18702838879607	-47.76923272456873	26.617505609502217	0	0	0
271	1	1	26.960670718653212	-47.33204315848709	26.158874135699385	0	0	0
272	1	1	27.734313048510355	-47.51063488273462	25.550941128301773	0	0	0
273	1	1	28.507955378367498	-47.07344531665298	25.09230965449894	0	0	0
274	1	1	29.28159770822464	-47.25203704090051	24.484376647101328	0	0	0
275	1	1	30.055240038081784	-46.81484747481887	24.025745173298496	0	0	0
276	1	1	30.828882367938927	-46.9934391990664	23.417812165900884	0	0	0
277	1	1	31.60252469779607	-46.55624963298476	22.95918069209805	0	0	0
278	1	1	32.37616702765321	-46.73484135723229	22.35124768470044	0	0	0
279	1	1	33.14980935751035	-46.29765179115065	21.892616210897607	0	0	0
280	1	1	33.92345168736749	-46.47624351539818	21.284683203499995	0	0	0
281	1	1	34.69709401722463	-46.03905394931654	20.826051729697163	0	0	0
282	1	1	35.47073634708177	-46.21764567356407	20.21811872229955	0	0	0
283	1	1	36.24437867693891	-45.78045610748243	19.75948724849672	0	0	0
284	1	1	37.01802100679605	-45.95904783172996	19.151554241099106	0	0	0
285	1	1	37.79166333665319	-45.52185826564832	18.692922767296274	0	0	0
286	1	1	38.565305666510326	-45.70044998989585	18.08498975989866	0	0	0
287	1	1	39.338947996367466	-45.26326042381421	17.62635828609583	0	0	0
288	1	1	40.112590326224606	-45.44185214806174	17.018425278698217	0	0	0
289	1	1	40.886232656081745	-45.0046625819801	16.559793804895385	0	0	0
290	1	1	41.659874985938885	-45.18325430622763	15.95186079749777	0	0	0
291	1	1	42.433517315796024	-44.74606474014599	15.493229323694939	0	0	0
292	1	1	43.207159645653164	-44.92465646439352	14.885296316297325	0	0	0
293	1	1	43.9808019755103	-44.48746689831188	14.426664842494493	0	0	0
294	1	1	44.75444430536744	-44.66605862255941	13.818731835096878	0	0	0
295	1	1	45.52808663522458	-44.22886905647777	13.360100361294046	0	0	0
296	1	1	46.30172896508172	-44.4074607807253	12.752167353896432	0	0	0
297	1	1	47.07537129493886	-43.97027121464366	12.2935358800936	0	0	0
298	1	1	47.849013624796	-44.14886293889119	11.685602872695986	0	0	0
299	1	1	48.62265595465314	-43.71167337280955	11.226971398893154	0	0	0
300	1	1	49.39629828451028	-43.89026509705708	10.61903839149554	0	0	0
301	1	1	50.16994061436742	-43.45307553097544	10.160406917692708	0	0	0
302	1	1	2.9071877474604833	-51.593199013125556	41.631938908085246	0	0	0
303	1	1	2.0629746719820385	-51.373594471547456	41.14298274593009	0	0	0
304	1	1	1.2187615965035943	-51.68724065852171	40.70832155305944	0	0	0
305	1	1	0.3745485210251498	-51.46763611694361	40.21936539090429	0	0	0
306	1	1	-0.4696645544532946	-51.78128230391786	39.78470419803364	0	0	0
307	1	1	-1.313877629931739	-51.56167776233976	39.29574803587848	0	0	0
308	1	1	-2.158090705410183	-51.875323949314016	38.86108684300783	0	0	0
309	1	1	-3.002303780888628	-51.655719407735916	38.37213068085268	0	0	0
310	1	1	-3.846516856367072	-51.96936559471017	37.93746948798203	0	0	0
311	1	1	-4.6907299318455165	-51.74976105313207	37.44851332582687	0	0	0
312	1	1	-5.534943007323961	-52.06340724010632	37.013852132956224	0	0	0
313	1	1	-6.379156082802406	-51.84380269852822	36.52489597080107	0	0	0
314	1	1	-7.223369158280851	-52.157448885502475	36.09023477793042	0	0	0
315	1	1	-8.067582233759294	-51.937844343924375	35.601278615775264	0	0	0
316	1	1	-8.911795309237739	-52.25149053089863	35.166617422904615	0	0	0
317	1	1	-9.756008384716184	-52.03188598932053	34.67766126074946	0	0	0
318	1	1	-10.600221460194629	-52.34553217629478	34.24300006787881	0	0	0
319	1	1	-11.444434535673073	-52.12592763471668	33.754043905723655	0	0	0
320	1	1	-12.288647611151518	-52.439573821690935	33.319382712853006	0	0	0
321	1	1	-13.132860686629963	-52.219969280112835	32.83042655069785	0	0	0
322	1	1	-13.977073762108407	-52.53361546708709	32.3957653578272	0	0	0
323	1	1	-14.821286837586852	-52.31401092550899	31.906809195672047	0	0	0
324	1	1	-15.665499913065297	-52.62765711248324	31.472148002801397	0	0	0
325	1	1	-16.50971298854374	-52.40805257090514	30.983191840646242	0	0	0
326	1	1	-17.353926064022183	-52.721698757879395	30.548530647775593	0	0	0
327	1	1	-18.198139139500626	-52.502094216301295	30.059574485620438	0	0	0
328	1	1	-19.04235221497907	-52.81574040327555	29.62491329274979	0	0	0
329	1	1	-19.88656529045751	-52.59613586169745	29.135957130594633	0	0	0
330	1	1	-20.730778365935954	-52.9097820486717	28.701295937723984	0	0	0
331	1	1	-21.574991441414397	-52.6901775070936	28.21233977556883	0	0	0
332	1	1	-22.41920451689284	-53.003823694067854	27.77767858269818	0	0	0
333	1	1	-23.263417592371283	-52.784219152489754	27.288722420543024	0	0	0
334	1	1	-24.107630667849726	-53.09786533946401	26.854061227672375	0	0	0
335	1	1	-24.95184374332817	-52.87826079788591	26.36510506551722	0	0	0
336	1	1	-25.796056818806612	-53.19190698486016	25.93044387264657	0	0	0
337	1	1	-26.640269894285055	-52.97230244328206	25.441487710491415	0	0	0
338	1	1	-27.484482969763498	-53.285948630256314	25.006826517620766	0	0	0
339	1	1	-28.32869604524194	-53.066344088678214	24.51787035546561	0	0	0
340	1	1	-29.172909120720384	-53.37999027565247	24.08320916259496	0	0	0
341	1	1	-30.017122196198827	-53.16038573407437	23.594253000439807	0	0	0
342	1	1	-30.86133527167727	-53.47403192104862	23.159591807569157	0	0	0
343	1	1	-31.705548347155712	-53.25442737947052	22.670635645414002	0	0	0
344	1	1	-32.549761422634155	-53.568073566444774	22.235974452543353	0	0	0
345	1	1	-33.3939744981126	-53.348469024866674	21.747018290388198	0	0	0
346	1	1	-34.23818757359104	-53.66211521184093	21.31235709751755	0	0	0
347	1	1	-35.082400649069484	-53.44251067026283	20.823400935362393	0	0	0
348	1	1	-35.92661372454793	-53.75615685723708	20.388739742491744	0	0	0
349	1	1	-36.77082680002637	-53.53655231565898	19.89978358033659	0	0	0
350	1	1	-37.61503987550481	-53.85019850263323	19.46512238746594	0	0	0
351	1	1	-38.459252950983256	-53.63059396105513	18.976166225310784	0	0	0
352	1	1	-39.3034660264617	-53.94424014802939	18.541505032440135	0	0	0
353	1	1	-40.14767910194014	-53.72463560645129	18.05254887028498	0	0	0
354	1	1	-40.991892177418585	-54.03828179342554	17.61788767741433	0	0	0
355	1	1	-41.83610525289703	-53.81867725184744	17.128931515259175	0	0	0
356	1	1	-42.68031832837547	-54.13232343882169	16.694270322388526	0	0	0
357	1	1	-43.52453140385391	-53.91271889724359	16.20531416023337	0	0	0
358	1	1	-44.368744479332356	-54.226365084217846	15.77065296736272	0	0	0
359	1	1	-45.2129575548108	-54.006760542639746	15.281696805207567	0	0	0
360	1	1	-46.05717063028924	-54.320406729614	14.847035612336915	0	0	0
361	1	1	-46.901383705767685	-54.1008021880359	14.358079450181762	0	0	0
362	1	1	3.88458373488183	-52.39435741310746	42.665651268510786	0	0	0
363	1	1	4.017766646824735	-53.38543257858174	42.671337070699174	0	0	0
364	1	1	4.15094955876764	-53.87604611218285	43.53247624215396	0	0	0
365	1	1	4.284132470710545	-54.867121277657134	43.53816204434235	0	0	0
366	1	1	4.41731538265345	-55.35773481125824	44.39930121579714	0	0	0
367	1	1	4.550498294596355	-56.348809976732525	44.404987017985526	0	0	0
368	1	1	4.6836812065392595	-56.83942351033363	45.266126189440314	0	0	0
369	1	1	4.816864118482164	-57.83049867580792	45.2718119916287	0	0	0
370	1	1	4.950047030425069	-58.32111220940902	46.13295116308349	0	0	0
371	1	1	5.083229942367974	-59.31218737488331	46.13863696527188	0	0	0
372	1	1	5.216412854310879	-59.802800908484414	46.999776136726666	0	0	0
373	1	1	5.349595766253784	-60.7938760739587	47.005461938915055	0	0	0
374	1	1	5.482778678196689	-61.284489607559806	47.86660111036984	0	0	0
375	1	1	5.615961590139594	-62.27556477303409	47.87228691255823	0	0	0
376	1	1	5.7491445020824985	-62.7661783066352	48.73342608401302	0	0	0
377	1	1	5.882327414025403	-63.75725347210948	48.73911188620141	0	0	0
378	1	1	6.015510325968308	-64.24786700571059	49.600251057656195	0	0	0
379	1	1	6.148693237911213	-65.23894217118487	49.60593685984458	0	0	0
380	1	1	6.281876149854118	-65.72955570478598	50.46707603129937	0	0	0
381	1	1	6.415059061797023	-66.72063087026027	50.47276183348776	0	0	0
382	1	1	6.548241973739928	-67.21124440386137	51.33390100494255	0	0	0
383	1	1	6.681424885682833	-68.20231956933566	51.339586807130935	0	0	0
384	1	1	6.8146077976257375	-68.69293310293676	52.20072597858572	0	0	0
385	1	1	6.947790709568642	-69.68400826841105	52.20641178077411	0	0	0
386	1	1	7.080973621511547	-70.17462180201215	53.0675509522289	0	0	0
387	1	1	7.214156533454452	-71.16569696748644	53.07323675441729	0	0	0
388	1	1	7.347339445397357	-71.65631050108755	53.934375925872075	0	0	0
389	1	1	7.480522357340262	-72.64738566656183	53.94006172806046	0	0	0
390	1	1	7.613705269283167	-73.13799920016294	54.80120089951525	0	0	0
391	1	1	7.746888181226072	-74.12907436563722	54.80688670170364	0	0	0
392	1	1	7.880071093168977	-74.61968789923833	55.66802587315843	0	0	0
393	1	1	8.01325400511188	-75.61076306471261	55.673711675346816	0	0	0
394	1	1	8.146436917054785	-76.10137659831372	56.5348508468016	0	0	0
395	1	1	8.27961982899769	-77.092451763788	56.54053664898999	0	0	0
396	1	1	8.412802740940595	-77.58306529738911	57.40167582044478	0	0	0
397	1	1	8.5459856528835	-78.5741404628634	57.40736162263317	0	0	0
398	1	1	8.679168564826405	-79.0647539964645	58.268500794087956	0	0	0
399	1	1	8.81235147676931	-80.05582916193879	58.274186596276344	0	0	0
400	1	1	8.945534388712215	-80.5464426955399	59.13532576773113	0	0	0
401	1	1	9.07871730065512	-81.53751786101418	59.14101156991952	0	0	0
402	1	1	9.211900212598024	-82.02813139461529	60.00215074137431	0	0	0
403	1	1	9.34508312454093	-83.01920656008957	60.007836543562696	0	0	0
404	1	1	9.478266036483834	-83.50982009369068	60.868975715017484	0	0	0
405	1	1	9.61144894842674	-84.50089525916496	60.87466151720587	0	0	0
406	1	1	9.744631860369644	-84.99150879276607	61.73580068866066	0	0	0
407	1	1	9.877814772312549	-85.98258395824035	61.74148649084905	0	0	0
408	1	1	10.010997684255454	-86.47319749184146	62.602625662303836	0	0	0
409	1	1	10.144180596198359	-87.46427265731575	62.608311464492225	0	0	0
410	1	1	10.277363508141264	-87.95488619091685	63.46945063594701	0	0	0
411	1	1	10.410546420084168	-88.94596135639114	63.4751364381354	0	0	0
412	1	1	10.543729332027073	-89.43657488999224	64.33627560959019	0	0	0
413	1	1	10.676912243969978	-90.42765005546653	64.34196141177857	0	0	0
414	1	1	10.810095155912883	-90.91826358906764	65.20310058323336	0	0	0
415	1	1	10.943278067855788	-91.90933875454192	65.20878638542175	0	0	0
416	1	1	11.076460979798693	-92.39995228814303	66.06992555687654	0	0	0
417	1	1	11.209643891741598	-93.39102745361731	66.07561135906492	0	0	0
418	1	1	11.342826803684503	-93.88164098721842	66.93675053051972	0	0	0
419	1	1	11.476009715627407	-94.8727161526927	66.9424363327081	0	0	0
420	1	1	11.609192627570312	-95.36332968629381	67.8035755041629	0	0	0
421	1	1	11.742375539513217	-96.3544048517681	67.80926130635127	0	0	0
422	1	1	11.015285858785989	-96.78586194028358	68.3432888121501	0	0	0
423	1	1	10.28819617805876	-97.42652849248027	68.5900416542338	0	0	0
424	1	1	9.561106497331531	-97.53316753887813	69.26825158483297	0	0	0
425	1	1	8.834016816604302	-98.17383409107482	69.51500442691666	0	0	0
426	1	1	8.106927135877074	-98.28047313747268	70.19321435751583	0	0	0
427	1	1	7.379837455149845	-98.92113968966937	70.43996719959952	0	0	0
428	1	1	6.6527477744226164	-99.02777873606723	71.11817713019869	0	0	0
429	1	1	5.925658093695388	-99.66844528826392	71.36492997228238	0	0	0
430	1	1	5.198568412968159	-99.77508433466178	72.04313990288155	0	0	0
431	1	1	4.47147873224093	-100.41575088685848	72.28989274496524	0	0	0
432	1	1	3.7443890515137017	-100.52238993325633	72.96810267556441	0	0	0
433	1	1	3.017299370786473	-101.16305648545303	73.2148555176481	0	0	0
434	1	1	2.2902096900592444	-101.26969553185089	73.89306544824727	0	0	0
435	1	1	1.5631200093320157	-101.91036208404758	74.13981829033096	0	0	0
436	1	1	0.8360303286047869	-102.01700113044544	74.81802822093013	0	0	0
437	1	1	0.10894064787755808	-102.65766768264213	75.06478106301383	0	0	0
438	1	1	-0.6181490328496707	-102.76430672903999	75.74299099361299	0	0	0
439	1	1	-1.3452387135768995	-103.40497328123668	75.98974383569669	0	0	0
440	1	1	-2.072328394304128	-103.51161232763454	76.66795376629585	0	0	0
441	1	1	-2.799418075031357	-104.15227887983123	76.91470660837955	0	0	0
442	1	1	-3.5265077557585855	-104.25891792622909	77.59291653897871	0	0	0
443	1	1	-4.253597436485815	-104.89958447842578	77.83966938106241	0	0	0
444	1	1	-4.980687117213043	-105.00622352482364	78.51787931166157	0	0	0
445	1	1	-5.707776797940272	-105.64689007702033	78.76463215374527	0	0	0
446	1	1	-6.434866478667501	-105.75352912341819	79.44284208434443	0	0	0