bb320nuc3bl80bn4d30tot800V2

801 atoms
800 bonds
808 angles

1 atom types
1 bond types
1 angle types

-1000 1000 xlo xhi
-1000 1000 ylo yhi
-1000 1000 zlo zhi

Masses

1 1

Atoms

1	1	1	0.0	0.0	0.0	0	0	0
2	1	1	0.0	0.0	1.0	0	0	0
3	1	1	0.0	-0.49999999999999994	1.8660254037844388	0	0	0
4	1	1	0.0	0.0	2.7320508075688776	0	0	0
5	1	1	0.0	-0.49999999999999994	3.5980762113533165	0	0	0
6	1	1	0.0	0.0	4.464101615137755	0	0	0
7	1	1	0.0	-0.49999999999999994	5.330127018922194	0	0	0
8	1	1	0.0	0.0	6.196152422706632	0	0	0
9	1	1	0.0	-0.49999999999999994	7.06217782649107	0	0	0
10	1	1	0.0	0.0	7.928203230275509	0	0	0
11	1	1	0.0	-0.49999999999999994	8.794228634059948	0	0	0
12	1	1	0.0	0.0	9.660254037844387	0	0	0
13	1	1	0.0	-0.49999999999999994	10.526279441628827	0	0	0
14	1	1	0.0	0.0	11.392304845413266	0	0	0
15	1	1	0.0	-0.49999999999999994	12.258330249197705	0	0	0
16	1	1	0.0	0.0	13.124355652982144	0	0	0
17	1	1	0.0	-0.49999999999999994	13.990381056766584	0	0	0
18	1	1	0.0	0.0	14.856406460551023	0	0	0
19	1	1	0.0	-0.49999999999999994	15.722431864335462	0	0	0
20	1	1	0.0	0.0	16.5884572681199	0	0	0
21	1	1	0.0	-0.49999999999999994	17.454482671904337	0	0	0
22	1	1	0.0	0.0	18.320508075688775	0	0	0
23	1	1	0.0	-0.49999999999999994	19.186533479473212	0	0	0
24	1	1	0.0	0.0	20.05255888325765	0	0	0
25	1	1	0.0	-0.49999999999999994	20.918584287042087	0	0	0
26	1	1	0.0	0.0	21.784609690826525	0	0	0
27	1	1	0.0	-0.49999999999999994	22.650635094610962	0	0	0
28	1	1	0.0	0.0	23.5166604983954	0	0	0
29	1	1	0.0	-0.49999999999999994	24.382685902179837	0	0	0
30	1	1	0.0	0.0	25.248711305964274	0	0	0
31	1	1	0.0	-0.49999999999999994	26.114736709748712	0	0	0
32	1	1	0.0	0.0	26.98076211353315	0	0	0
33	1	1	0.0	-0.49999999999999994	27.846787517317587	0	0	0
34	1	1	0.0	0.0	28.712812921102024	0	0	0
35	1	1	0.0	-0.49999999999999994	29.578838324886462	0	0	0
36	1	1	0.0	0.0	30.4448637286709	0	0	0
37	1	1	0.0	-0.49999999999999994	31.310889132455337	0	0	0
38	1	1	0.0	0.0	32.17691453623978	0	0	0
39	1	1	0.0	-0.49999999999999994	33.04293994002422	0	0	0
40	1	1	0.0	0.0	33.90896534380866	0	0	0
41	1	1	0.0	-0.49999999999999994	34.7749907475931	0	0	0
42	1	1	0.0	0.0	35.64101615137754	0	0	0
43	1	1	0.0	-0.49999999999999994	36.50704155516198	0	0	0
44	1	1	0.0	0.0	37.373066958946424	0	0	0
45	1	1	0.0	-0.49999999999999994	38.239092362730865	0	0	0
46	1	1	0.0	0.0	39.105117766515306	0	0	0
47	1	1	0.0	-0.49999999999999994	39.97114317029975	0	0	0
48	1	1	0.0	0.0	40.83716857408419	0	0	0
49	1	1	0.0	-0.49999999999999994	41.70319397786863	0	0	0
50	1	1	0.0	0.0	42.56921938165307	0	0	0
51	1	1	0.0	-0.49999999999999994	43.43524478543751	0	0	0
52	1	1	0.0	0.0	44.30127018922195	0	0	0
53	1	1	0.0	-0.49999999999999994	45.16729559300639	0	0	0
54	1	1	0.0	0.0	46.033320996790835	0	0	0
55	1	1	0.0	-0.49999999999999994	46.899346400575276	0	0	0
56	1	1	0.0	0.0	47.76537180435972	0	0	0
57	1	1	0.0	-0.49999999999999994	48.63139720814416	0	0	0
58	1	1	0.0	0.0	49.4974226119286	0	0	0
59	1	1	0.0	-0.49999999999999994	50.36344801571304	0	0	0
60	1	1	0.0	0.0	51.22947341949748	0	0	0
61	1	1	0.0	-0.49999999999999994	52.09549882328192	0	0	0
62	1	1	0.0	0.0	52.96152422706636	0	0	0
63	1	1	0.0	-0.49999999999999994	53.827549630850804	0	0	0
64	1	1	0.0	0.0	54.693575034635245	0	0	0
65	1	1	0.0	-0.49999999999999994	55.559600438419686	0	0	0
66	1	1	0.0	0.0	56.42562584220413	0	0	0
67	1	1	0.0	-0.49999999999999994	57.29165124598857	0	0	0
68	1	1	0.0	0.0	58.15767664977301	0	0	0
69	1	1	0.0	-0.49999999999999994	59.02370205355745	0	0	0
70	1	1	0.0	0.0	59.88972745734189	0	0	0
71	1	1	0.0	-0.49999999999999994	60.75575286112633	0	0	0
72	1	1	0.0	0.0	61.62177826491077	0	0	0
73	1	1	0.0	-0.49999999999999994	62.487803668695214	0	0	0
74	1	1	0.0	0.0	63.353829072479655	0	0	0
75	1	1	0.0	-0.49999999999999994	64.21985447626409	0	0	0
76	1	1	0.0	0.0	65.08587988004852	0	0	0
77	1	1	0.0	-0.49999999999999994	65.95190528383296	0	0	0
78	1	1	0.0	0.0	66.81793068761739	0	0	0
79	1	1	0.0	-0.49999999999999994	67.68395609140183	0	0	0
80	1	1	0.0	0.0	68.54998149518626	0	0	0
81	1	1	0.0	-0.49999999999999994	69.41600689897069	0	0	0
82	1	1	-0.8460352051918961	-0.30690612514324356	69.91293665967004	0	0	0
83	1	1	-1.6920704103837956	-0.38814680455178857	70.43983739376057	0	0	0
84	1	1	-2.538105615575695	0.027542276739006555	70.77364425299434	0	0	0
85	1	1	-3.3841408207675947	-0.05369840266953847	71.30054498708488	0	0	0
86	1	1	-4.230176025959494	0.36199067862125667	71.63435184631865	0	0	0
87	1	1	-5.076211231151394	0.28074999921271165	72.16125258040918	0	0	0
88	1	1	-5.922246436343293	0.6964390805035068	72.49505943964296	0	0	0
89	1	1	-6.768281641535193	0.6151984010949617	73.02196017373349	0	0	0
90	1	1	-7.6143168467270925	1.0308874823857568	73.35576703296726	0	0	0
91	1	1	-8.460352051918992	0.9496468029772117	73.8826677670578	0	0	0
92	1	1	-9.306387257110892	1.3653358842680068	74.21647462629157	0	0	0
93	1	1	-10.152422462302791	1.2840952048594618	74.7433753603821	0	0	0
94	1	1	-10.99845766749469	1.699784286150257	75.07718221961588	0	0	0
95	1	1	-11.84449287268659	1.618543606741712	75.60408295370641	0	0	0
96	1	1	-12.69052807787849	2.0342326880325072	75.93788981294018	0	0	0
97	1	1	-13.53656328307039	1.9529920086239623	76.46479054703072	0	0	0
98	1	1	-14.382598488262289	2.3686810899147575	76.79859740626449	0	0	0
99	1	1	-15.228633693454189	2.2874404105062123	77.32549814035502	0	0	0
100	1	1	-16.074668898646088	2.7031294917970072	77.6593049995888	0	0	0
101	1	1	-16.920704103837988	2.621888812388462	78.18620573367933	0	0	0
102	1	1	-17.766739309029887	3.037577893679257	78.5200125929131	0	0	0
103	1	1	-18.612774514221787	2.956337214270712	79.04691332700364	0	0	0
104	1	1	-19.458809719413686	3.372026295561507	79.38072018623741	0	0	0
105	1	1	-20.304844924605586	3.2907856161529616	79.90762092032794	0	0	0
106	1	1	-21.150880129797486	3.7064746974437566	80.24142777956172	0	0	0
107	1	1	-21.996915334989385	3.6252340180352114	80.76832851365225	0	0	0
108	1	1	-22.842950540181285	4.040923099326006	81.10213537288602	0	0	0
109	1	1	-23.688985745373184	3.959682419917461	81.62903610697656	0	0	0
110	1	1	-24.535020950565084	4.375371501208257	81.96284296621033	0	0	0
111	1	1	-25.381056155756983	4.294130821799712	82.48974370030086	0	0	0
112	1	1	-26.227091360948883	4.709819903090507	82.82355055953464	0	0	0
113	1	1	-27.073126566140783	4.628579223681962	83.35045129362517	0	0	0
114	1	1	-27.919161771332682	5.044268304972757	83.68425815285894	0	0	0
115	1	1	-28.76519697652458	4.963027625564212	84.21115888694948	0	0	0
116	1	1	-29.61123218171648	5.378716706855007	84.54496574618325	0	0	0
117	1	1	-30.45726738690838	5.2974760274464625	85.07186648027378	0	0	0
118	1	1	-31.30330259210028	5.7131651087372575	85.40567333950756	0	0	0
119	1	1	-32.149337797292176	5.631924429328713	85.93257407359809	0	0	0
120	1	1	-32.99537300248407	6.047613510619508	86.26638093283186	0	0	0
121	1	1	-33.84140820767597	5.966372831210963	86.7932816669224	0	0	0
122	1	1	-34.687443412867864	6.382061912501758	87.12708852615617	0	0	0
123	1	1	-35.53347861805976	6.300821233093213	87.6539892602467	0	0	0
124	1	1	-36.379513823251656	6.716510314384008	87.98779611948048	0	0	0
125	1	1	-37.22554902844355	6.635269634975463	88.51469685357101	0	0	0
126	1	1	-38.07158423363545	7.050958716266258	88.84850371280478	0	0	0
127	1	1	-38.917619438827344	6.969718036857714	89.37540444689532	0	0	0
128	1	1	-39.76365464401924	7.385407118148509	89.70921130612909	0	0	0
129	1	1	-40.60968984921114	7.304166438739964	90.23611204021962	0	0	0
130	1	1	-41.45572505440303	7.719855520030759	90.5699188994534	0	0	0
131	1	1	-42.30176025959493	7.638614840622214	91.09681963354393	0	0	0
132	1	1	-43.147795464786824	8.054303921913009	91.4306264927777	0	0	0
133	1	1	-43.99383066997872	7.973063242504464	91.95752722686824	0	0	0
134	1	1	-44.83986587517062	8.38875232379526	92.29133408610201	0	0	0
135	1	1	-45.68590108036251	8.307511644386715	92.81823482019254	0	0	0
136	1	1	-46.53193628555441	8.72320072567751	93.15204167942632	0	0	0
137	1	1	-47.377971490746305	8.641960046268965	93.67894241351685	0	0	0
138	1	1	-48.2240066959382	9.05764912755976	94.01274927275063	0	0	0
139	1	1	-49.0700419011301	8.976408448151215	94.53965000684116	0	0	0
140	1	1	-49.91607710632199	9.39209752944201	94.87345686607493	0	0	0
141	1	1	-50.76211231151389	9.310856850033465	95.40035760016546	0	0	0
142	1	1	-51.608147516705785	9.72654593132426	95.73416445939924	0	0	0
143	1	1	-52.45418272189768	9.645305251915715	96.26106519348977	0	0	0
144	1	1	-53.30021792708958	10.06099433320651	96.59487205272355	0	0	0
145	1	1	-54.14625313228147	9.979753653797966	97.12177278681408	0	0	0
146	1	1	-54.99228833747337	10.39544273508876	97.45557964604785	0	0	0
147	1	1	-55.838323542665265	10.314202055680216	97.98248038013838	0	0	0
148	1	1	-56.68435874785716	10.72989113697101	98.31628723937216	0	0	0
149	1	1	-57.53039395304906	10.648650457562466	98.84318797346269	0	0	0
150	1	1	-58.37642915824095	11.064339538853261	99.17699483269647	0	0	0
151	1	1	-59.22246436343285	10.983098859444716	99.703895566787	0	0	0
152	1	1	-60.068499568624745	11.398787940735511	100.03770242602077	0	0	0
153	1	1	-60.91453477381664	11.317547261326967	100.5646031601113	0	0	0
154	1	1	-61.76056997900854	11.733236342617761	100.89841001934508	0	0	0
155	1	1	-62.60660518420043	11.651995663209217	101.42531075343561	0	0	0
156	1	1	-63.45264038939233	12.067684744500012	101.75911761266939	0	0	0
157	1	1	-64.29867559458422	11.986444065091467	102.28601834675992	0	0	0
158	1	1	-65.14471079977612	12.402133146382262	102.61982520599369	0	0	0
159	1	1	-65.99074600496802	12.320892466973717	103.14672594008422	0	0	0
160	1	1	-66.83678121015991	12.736581548264512	103.480532799318	0	0	0
161	1	1	-67.68281641535181	12.655340868855967	104.00743353340853	0	0	0
162	1	1	0.7830149070695859	-0.2123756779597789	69.96751383879803	0	0	0
163	1	1	1.5660298141391746	-0.23903917824033488	70.58894502007202	0	0	0
164	1	1	2.3490447212087635	0.2858042613064387	70.92275187930579	0	0	0
165	1	1	3.1320596282783524	0.25914076102588274	71.54418306057978	0	0	0
166	1	1	3.9150745353479413	0.7839842005726563	71.87798991981356	0	0	0
167	1	1	4.69808944241753	0.7573207002921003	72.49942110108755	0	0	0
168	1	1	5.4811043494871186	1.282164139838874	72.83322796032132	0	0	0
169	1	1	6.264119256556707	1.255500639558318	73.45465914159531	0	0	0
170	1	1	7.047134163626296	1.7803440791050915	73.78846600082909	0	0	0
171	1	1	7.830149070695885	1.7536805788245355	74.40989718210308	0	0	0
172	1	1	8.613163977765474	2.278524018371309	74.74370404133685	0	0	0
173	1	1	9.396178884835063	2.2518605180907527	75.36513522261085	0	0	0
174	1	1	10.179193791904652	2.776703957637526	75.69894208184462	0	0	0
175	1	1	10.96220869897424	2.75004045735697	76.32037326311861	0	0	0
176	1	1	11.74522360604383	3.2748838969037433	76.65418012235239	0	0	0
177	1	1	12.528238513113418	3.248220396623187	77.27561130362638	0	0	0
178	1	1	13.311253420183007	3.7730638361699604	77.60941816286015	0	0	0
179	1	1	14.094268327252596	3.7464003358894042	78.23084934413414	0	0	0
180	1	1	14.877283234322185	4.271243775436178	78.56465620336792	0	0	0
181	1	1	15.660298141391774	4.244580275155622	79.18608738464191	0	0	0
182	1	1	16.443313048461363	4.769423714702396	79.51989424387568	0	0	0
183	1	1	17.22632795553095	4.74276021442184	80.14132542514967	0	0	0
184	1	1	18.00934286260054	5.267603653968614	80.47513228438345	0	0	0
185	1	1	18.79235776967013	5.240940153688058	81.09656346565744	0	0	0
186	1	1	19.57537267673972	5.765783593234832	81.43037032489121	0	0	0
187	1	1	20.358387583809307	5.739120092954276	82.0518015061652	0	0	0
188	1	1	21.141402490878896	6.26396353250105	82.38560836539898	0	0	0
189	1	1	21.924417397948485	6.237300032220494	83.00703954667297	0	0	0
190	1	1	22.707432305018074	6.762143471767268	83.34084640590675	0	0	0
191	1	1	23.490447212087663	6.735479971486712	83.96227758718074	0	0	0
192	1	1	24.27346211915725	7.260323411033486	84.29608444641451	0	0	0
193	1	1	25.05647702622684	7.23365991075293	84.9175156276885	0	0	0
194	1	1	25.83949193329643	7.758503350299704	85.25132248692228	0	0	0
195	1	1	26.622506840366018	7.731839850019148	85.87275366819627	0	0	0
196	1	1	27.405521747435607	8.256683289565922	86.20656052743004	0	0	0
197	1	1	28.188536654505196	8.230019789285366	86.82799170870403	0	0	0
198	1	1	28.971551561574785	8.75486322883214	87.16179856793781	0	0	0
199	1	1	29.754566468644374	8.728199728551584	87.7832297492118	0	0	0
200	1	1	30.537581375713962	9.253043168098356	88.11703660844557	0	0	0
201	1	1	31.32059628278355	9.2263796678178	88.73846778971956	0	0	0
202	1	1	32.10361118985314	9.751223107364574	89.07227464895334	0	0	0
203	1	1	32.886626096922726	9.724559607084018	89.69370583022733	0	0	0
204	1	1	33.66964100399231	10.24940304663079	90.0275126894611	0	0	0
205	1	1	34.452655911061896	10.222739546350235	90.6489438707351	0	0	0
206	1	1	35.23567081813148	10.747582985897008	90.98275072996887	0	0	0
207	1	1	36.01868572520107	10.720919485616452	91.60418191124286	0	0	0
208	1	1	36.80170063227065	11.245762925163225	91.93798877047664	0	0	0
209	1	1	37.58471553934024	11.21909942488267	92.55941995175063	0	0	0
210	1	1	38.36773044640982	11.743942864429442	92.8932268109844	0	0	0
211	1	1	39.15074535347941	11.717279364148887	93.51465799225839	0	0	0
212	1	1	39.93376026054899	12.24212280369566	93.84846485149217	0	0	0
213	1	1	40.71677516761858	12.215459303415104	94.46989603276616	0	0	0
214	1	1	41.499790074688164	12.740302742961877	94.80370289199993	0	0	0
215	1	1	42.28280498175775	12.713639242681321	95.42513407327392	0	0	0
216	1	1	43.065819888827335	13.238482682228094	95.7589409325077	0	0	0
217	1	1	43.84883479589692	13.211819181947538	96.38037211378169	0	0	0
218	1	1	44.631849702966505	13.736662621494311	96.71417897301546	0	0	0
219	1	1	45.41486461003609	13.709999121213755	97.33561015428945	0	0	0
220	1	1	46.197879517105676	14.234842560760528	97.66941701352323	0	0	0
221	1	1	46.98089442417526	14.208179060479972	98.29084819479722	0	0	0
222	1	1	47.76390933124485	14.733022500026745	98.624655054031	0	0	0
223	1	1	48.54692423831443	14.70635899974619	99.24608623530499	0	0	0
224	1	1	49.32993914538402	15.231202439292963	99.57989309453876	0	0	0
225	1	1	50.1129540524536	15.204538939012407	100.20132427581275	0	0	0
226	1	1	50.89596895952319	15.72938237855918	100.53513113504653	0	0	0
227	1	1	51.67898386659277	15.702718878278624	101.15656231632052	0	0	0
228	1	1	52.46199877366236	16.2275623178254	101.49036917555429	0	0	0
229	1	1	53.245013680731944	16.200898817544843	102.11180035682828	0	0	0
230	1	1	54.02802858780153	16.725742257091618	102.44560721606206	0	0	0
231	1	1	54.811043494871114	16.699078756811062	103.06703839733605	0	0	0
232	1	1	55.5940584019407	17.223922196357837	103.40084525656982	0	0	0
233	1	1	56.377073309010285	17.19725869607728	104.02227643784381	0	0	0
234	1	1	57.16008821607987	17.722102135624056	104.35608329707759	0	0	0
235	1	1	57.943103123149456	17.6954386353435	104.97751447835158	0	0	0
236	1	1	58.72611803021904	18.220282074890275	105.31132133758535	0	0	0
237	1	1	59.509132937288626	18.19361857460972	105.93275251885935	0	0	0
238	1	1	60.29214784435821	18.718462014156493	106.26655937809312	0	0	0
239	1	1	61.0751627514278	18.691798513875938	106.88799055936711	0	0	0
240	1	1	61.85817765849738	19.216641953422712	107.22179741860089	0	0	0
241	1	1	62.64119256556697	19.189978453142157	107.84322859987488	0	0	0
242	1	1	0.06302029812232277	-1.4814284857476272	69.23482585860586	0	0	0
243	1	1	0.12604059624464575	-2.240779966220349	68.58720423209199	0	0	0
244	1	1	0.18906089436696874	-3.1813124870579115	68.92101109132577	0	0	0
245	1	1	0.2520811924892917	-3.940663967530633	68.2733894648119	0	0	0
246	1	1	0.31510149061161474	-4.881196488368196	68.60719632404567	0	0	0
247	1	1	0.37812178873393776	-5.6405479688409175	67.9595746975318	0	0	0
248	1	1	0.4411420868562608	-6.58108048967848	68.29338155676558	0	0	0
249	1	1	0.5041623849785838	-7.340431970151202	67.64575993025171	0	0	0
250	1	1	0.5671826831009068	-8.280964490988765	67.97956678948549	0	0	0
251	1	1	0.6302029812232298	-9.040315971461487	67.33194516297162	0	0	0
252	1	1	0.6932232793455528	-9.98084849229905	67.6657520222054	0	0	0
253	1	1	0.7562435774678758	-10.740199972771771	67.01813039569153	0	0	0
254	1	1	0.8192638755901989	-11.680732493609334	67.3519372549253	0	0	0
255	1	1	0.8822841737125219	-12.440083974082055	66.70431562841144	0	0	0
256	1	1	0.9453044718348449	-13.380616494919618	67.03812248764521	0	0	0
257	1	1	1.0083247699571678	-14.13996797539234	66.39050086113134	0	0	0
258	1	1	1.0713450680794907	-15.080500496229902	66.72430772036512	0	0	0
259	1	1	1.1343653662018136	-15.839851976702624	66.07668609385125	0	0	0
260	1	1	1.1973856643241365	-16.780384497540187	66.41049295308503	0	0	0
261	1	1	1.2604059624464594	-17.539735978012907	65.76287132657116	0	0	0
262	1	1	1.3234262605687823	-18.48026849885047	66.09667818580493	0	0	0
263	1	1	1.3864465586911052	-19.23961997932319	65.44905655929107	0	0	0
264	1	1	1.4494668568134281	-20.180152500160755	65.78286341852484	0	0	0
265	1	1	1.512487154935751	-20.939503980633475	65.13524179201097	0	0	0
266	1	1	1.575507453058074	-21.88003650147104	65.46904865124475	0	0	0
267	1	1	1.6385277511803968	-22.63938798194376	64.82142702473088	0	0	0
268	1	1	1.7015480493027197	-23.579920502781324	65.15523388396466	0	0	0
269	1	1	1.7645683474250426	-24.339271983254044	64.50761225745079	0	0	0
270	1	1	1.8275886455473656	-25.279804504091608	64.84141911668456	0	0	0
271	1	1	1.8906089436696885	-26.039155984564328	64.1937974901707	0	0	0
272	1	1	1.9536292417920114	-26.979688505401892	64.52760434940447	0	0	0
273	1	1	2.0166495399143343	-27.739039985874612	63.87998272289061	0	0	0
274	1	1	2.0796698380366574	-28.679572506712177	64.21378958212438	0	0	0
275	1	1	2.1426901361589805	-29.438923987184896	63.56616795561052	0	0	0
276	1	1	2.2057104342813036	-30.37945650802246	63.899974814844285	0	0	0
277	1	1	2.2687307324036268	-31.13880798849518	63.252353188330424	0	0	0
278	1	1	2.33175103052595	-32.079340509332745	63.58616004756419	0	0	0
279	1	1	2.394771328648273	-32.83869198980547	62.93853842105033	0	0	0
280	1	1	2.457791626770596	-33.77922451064303	63.2723452802841	0	0	0
281	1	1	2.5208119248929193	-34.538575991115756	62.62472365377024	0	0	0
282	1	1	2.5838322230152424	-35.47910851195332	62.95853051300401	0	0	0
283	1	1	2.6468525211375655	-36.238459992426044	62.31090888649015	0	0	0
284	1	1	2.7098728192598887	-37.17899251326361	62.644715745723914	0	0	0
285	1	1	2.772893117382212	-37.93834399373633	61.997094119210054	0	0	0
286	1	1	2.835913415504535	-38.878876514573896	62.33090097844382	0	0	0
287	1	1	2.898933713626858	-39.63822799504662	61.68327935192996	0	0	0
288	1	1	2.961954011749181	-40.578760515884184	62.01708621116373	0	0	0
289	1	1	3.0249743098715043	-41.33811199635691	61.36946458464987	0	0	0
290	1	1	3.0879946079938274	-42.27864451719447	61.70327144388364	0	0	0
291	1	1	3.1510149061161505	-43.037995997667196	61.055649817369776	0	0	0
292	1	1	3.2140352042384737	-43.97852851850476	61.389456676603544	0	0	0
293	1	1	3.277055502360797	-44.73787999897748	60.74183505008968	0	0	0
294	1	1	3.34007580048312	-45.67841251981505	61.07564190932345	0	0	0
295	1	1	3.403096098605443	-46.43776400028777	60.42802028280959	0	0	0
296	1	1	3.466116396727766	-47.378296521125336	60.76182714204336	0	0	0
297	1	1	3.5291366948500893	-48.13764800159806	60.1142055155295	0	0	0
298	1	1	3.5921569929724124	-49.07818052243562	60.448012374763266	0	0	0
299	1	1	3.6551772910947355	-49.83753200290835	59.800390748249406	0	0	0
300	1	1	3.7181975892170587	-50.77806452374591	60.13419760748317	0	0	0
301	1	1	3.781217887339382	-51.537416004218635	59.48657598096931	0	0	0
302	1	1	3.844238185461705	-52.4779485250562	59.82038284020308	0	0	0
303	1	1	3.907258483584028	-53.23730000552892	59.17276121368922	0	0	0
304	1	1	3.970278781706351	-54.17783252636649	59.50656807292299	0	0	0
305	1	1	4.033299079828674	-54.93718400683921	58.85894644640913	0	0	0
306	1	1	4.096319377950997	-55.877716527676775	59.192753305642896	0	0	0
307	1	1	4.15933967607332	-56.6370680081495	58.545131679129035	0	0	0
308	1	1	4.222359974195643	-57.57760052898706	58.8789385383628	0	0	0
309	1	1	4.285380272317966	-58.336952009459786	58.23131691184894	0	0	0
310	1	1	4.3484005704402895	-59.27748453029735	58.56512377108271	0	0	0
311	1	1	4.411420868562613	-60.036836010770074	57.91750214456885	0	0	0
312	1	1	4.474441166684936	-60.97736853160764	58.25130900380262	0	0	0
313	1	1	4.537461464807259	-61.73672001208036	57.60368737728876	0	0	0
314	1	1	4.600481762929582	-62.677252532917926	57.937494236522525	0	0	0
315	1	1	4.663502061051905	-63.43660401339065	57.289872610008665	0	0	0
316	1	1	4.726522359174228	-64.37713653422821	57.62367946924243	0	0	0
317	1	1	4.789542657296551	-65.13648801470093	56.97605784272857	0	0	0
318	1	1	4.8525629554188745	-66.0770205355385	57.30986470196234	0	0	0
319	1	1	4.915583253541198	-66.83637201601121	56.66224307544848	0	0	0
320	1	1	4.978603551663521	-67.77690453684878	56.99604993468225	0	0	0
321	1	1	5.041623849785844	-68.53625601732149	56.34842830816839	0	0	0
322	1	1	5.066771255902791	-69.40122031260223	56.84963123698572	0	0	0
323	1	1	5.091918662019737	-70.40090283009053	56.85120355815233	0	0	0
324	1	1	5.117066068136684	-70.89938241876149	57.717740174599676	0	0	0
325	1	1	5.142213474253631	-71.89906493624979	57.71931249576628	0	0	0
326	1	1	5.167360880370578	-72.39754452492075	58.58584911221363	0	0	0
327	1	1	5.1925082864875245	-73.39722704240904	58.587421433380236	0	0	0
328	1	1	5.217655692604471	-73.89570663108	59.453958049827584	0	0	0
329	1	1	5.242803098721418	-74.8953891485683	59.45553037099419	0	0	0
330	1	1	5.267950504838365	-75.39386873723926	60.32206698744154	0	0	0
331	1	1	5.293097910955312	-76.39355125472756	60.32363930860814	0	0	0
332	1	1	5.318245317072258	-76.89203084339852	61.19017592505549	0	0	0
333	1	1	5.343392723189205	-77.89171336088681	61.1917482462221	0	0	0
334	1	1	5.368540129306152	-78.39019294955777	62.058284862669446	0	0	0
335	1	1	5.393687535423099	-79.38987546704607	62.05985718383605	0	0	0
336	1	1	5.418834941540045	-79.88835505571703	62.9263938002834	0	0	0
337	1	1	5.443982347656992	-80.88803757320532	62.927966121450005	0	0	0
338	1	1	5.469129753773939	-81.38651716187628	63.79450273789735	0	0	0
339	1	1	5.494277159890886	-82.38619967936458	63.79607505906396	0	0	0
340	1	1	5.5194245660078325	-82.88467926803554	64.66261167551131	0	0	0
341	1	1	5.544571972124779	-83.88436178552384	64.66418399667792	0	0	0
342	1	1	5.569719378241726	-84.3828413741948	65.53072061312527	0	0	0
343	1	1	5.594866784358673	-85.38252389168309	65.53229293429187	0	0	0
344	1	1	5.62001419047562	-85.88100348035405	66.39882955073922	0	0	0
345	1	1	5.645161596592566	-86.88068599784235	66.40040187190583	0	0	0
346	1	1	5.670309002709513	-87.37916558651331	67.26693848835318	0	0	0
347	1	1	5.69545640882646	-88.3788481040016	67.26851080951978	0	0	0
348	1	1	5.720603814943407	-88.87732769267257	68.13504742596713	0	0	0
349	1	1	5.745751221060353	-89.87701021016086	68.13661974713374	0	0	0
350	1	1	5.7708986271773	-90.37548979883182	69.00315636358108	0	0	0
351	1	1	5.796046033294247	-91.37517231632012	69.00472868474769	0	0	0
352	1	1	5.821193439411194	-91.87365190499108	69.87126530119504	0	0	0
353	1	1	5.8463408455281405	-92.87333442247937	69.87283762236164	0	0	0
354	1	1	5.871488251645087	-93.37181401115033	70.73937423880899	0	0	0
355	1	1	5.896635657762034	-94.37149652863863	70.7409465599756	0	0	0
356	1	1	5.921783063878981	-94.86997611730959	71.60748317642295	0	0	0
357	1	1	5.946930469995928	-95.86965863479789	71.60905549758955	0	0	0
358	1	1	5.972077876112874	-96.36813822346885	72.4755921140369	0	0	0
359	1	1	5.997225282229821	-97.36782074095714	72.4771644352035	0	0	0
360	1	1	6.022372688346768	-97.8663003296281	73.34370105165085	0	0	0
361	1	1	6.047520094463715	-98.8659828471164	73.34527337281746	0	0	0
362	1	1	6.072667500580661	-99.36446243578736	74.21180998926481	0	0	0
363	1	1	6.097814906697608	-100.36414495327566	74.21338231043141	0	0	0
364	1	1	6.122962312814555	-100.86262454194662	75.07991892687876	0	0	0
365	1	1	6.148109718931502	-101.86230705943491	75.08149124804537	0	0	0
366	1	1	6.1732571250484485	-102.36078664810587	75.94802786449272	0	0	0
367	1	1	6.198404531165395	-103.36046916559417	75.94960018565932	0	0	0
368	1	1	6.223551937282342	-103.85894875426513	76.81613680210667	0	0	0
369	1	1	6.248699343399289	-104.85863127175342	76.81770912327327	0	0	0
370	1	1	6.2738467495162356	-105.35711086042438	77.68424573972062	0	0	0
371	1	1	6.298994155633182	-106.35679337791268	77.68581806088723	0	0	0
372	1	1	6.324141561750129	-106.85527296658364	78.55235467733458	0	0	0
373	1	1	6.349288967867076	-107.85495548407194	78.55392699850118	0	0	0
374	1	1	6.374436373984023	-108.3534350727429	79.42046361494853	0	0	0
375	1	1	6.399583780100969	-109.3531175902312	79.42203593611514	0	0	0
376	1	1	6.424731186217916	-109.85159717890215	80.28857255256248	0	0	0
377	1	1	6.449878592334863	-110.85127969639045	80.29014487372909	0	0	0
378	1	1	6.47502599845181	-111.34975928506141	81.15668149017644	0	0	0
379	1	1	6.5001734045687565	-112.3494418025497	81.15825381134304	0	0	0
380	1	1	6.525320810685703	-112.84792139122067	82.02479042779039	0	0	0
381	1	1	6.55046821680265	-113.84760390870896	82.026362748957	0	0	0
382	1	1	6.575615622919597	-114.34608349737992	82.89289936540435	0	0	0
383	1	1	6.6007630290365435	-115.34576601486822	82.89447168657095	0	0	0
384	1	1	6.62591043515349	-115.84424560353918	83.7610083030183	0	0	0
385	1	1	6.651057841270437	-116.84392812102747	83.7625806241849	0	0	0
386	1	1	6.676205247387384	-117.34240770969843	84.62911724063225	0	0	0
387	1	1	6.701352653504331	-118.34209022718673	84.63068956179886	0	0	0
388	1	1	6.726500059621277	-118.84056981585769	85.49722617824621	0	0	0
389	1	1	6.751647465738224	-119.84025233334599	85.49879849941281	0	0	0
390	1	1	6.776794871855171	-120.33873192201695	86.36533511586016	0	0	0
391	1	1	6.801942277972118	-121.33841443950524	86.36690743702677	0	0	0
392	1	1	6.8270896840890645	-121.8368940281762	87.23344405347412	0	0	0
393	1	1	6.852237090206011	-122.8365765456645	87.23501637464072	0	0	0
394	1	1	6.877384496322958	-123.33505613433546	88.10155299108807	0	0	0
395	1	1	6.902531902439905	-124.33473865182376	88.10312531225468	0	0	0
396	1	1	6.9276793085568515	-124.83321824049472	88.96966192870202	0	0	0
397	1	1	6.952826714673798	-125.83290075798301	88.97123424986863	0	0	0
398	1	1	6.977974120790745	-126.33138034665397	89.83777086631598	0	0	0
399	1	1	7.003121526907692	-127.33106286414227	89.83934318748258	0	0	0
400	1	1	7.028268933024639	-127.82954245281323	90.70587980392993	0	0	0
401	1	1	7.053416339141585	-128.82922497030154	90.70745212509654	0	0	0
402	1	1	5.87532605188418	-68.44253063354704	55.804225964685095	0	0	0
403	1	1	6.7090282539825195	-68.08926089847726	55.37979560231677	0	0	0
404	1	1	7.542730456080859	-68.28019350689078	54.86163985617398	0	0	0
405	1	1	8.3764326581792	-67.92692377182101	54.43720949380565	0	0	0
406	1	1	9.21013486027754	-68.11785638023453	53.919053747662865	0	0	0
407	1	1	10.04383706237588	-67.76458664516475	53.49462338529454	0	0	0
408	1	1	10.87753926447422	-67.95551925357827	52.97646763915175	0	0	0
409	1	1	11.711241466572561	-67.6022495185085	52.55203727678342	0	0	0
410	1	1	12.544943668670902	-67.79318212692202	52.033881530640635	0	0	0
411	1	1	13.378645870769242	-67.43991239185225	51.60945116827231	0	0	0
412	1	1	14.212348072867583	-67.63084500026577	51.09129542212952	0	0	0
413	1	1	15.046050274965923	-67.27757526519599	50.66686505976119	0	0	0
414	1	1	15.879752477064264	-67.46850787360951	50.148709313618404	0	0	0
415	1	1	16.713454679162602	-67.11523813853974	49.72427895125008	0	0	0
416	1	1	17.547156881260943	-67.30617074695326	49.20612320510729	0	0	0
417	1	1	18.380859083359283	-66.95290101188348	48.78169284273896	0	0	0
418	1	1	19.214561285457624	-67.143833620297	48.263537096596174	0	0	0
419	1	1	20.048263487555964	-66.79056388522723	47.83910673422785	0	0	0
420	1	1	20.881965689654304	-66.98149649364075	47.32095098808506	0	0	0
421	1	1	21.715667891752645	-66.62822675857097	46.89652062571673	0	0	0
422	1	1	22.549370093850985	-66.8191593669845	46.378364879573944	0	0	0
423	1	1	23.383072295949326	-66.46588963191472	45.95393451720562	0	0	0
424	1	1	24.216774498047666	-66.65682224032824	45.43577877106283	0	0	0
425	1	1	25.050476700146007	-66.30355250525847	45.0113484086945	0	0	0
426	1	1	25.884178902244347	-66.49448511367198	44.493192662551714	0	0	0
427	1	1	26.717881104342688	-66.14121537860221	44.06876230018339	0	0	0
428	1	1	27.551583306441028	-66.33214798701573	43.5506065540406	0	0	0
429	1	1	28.38528550853937	-65.97887825194596	43.12617619167227	0	0	0
430	1	1	29.21898771063771	-66.16981086035948	42.60802044552948	0	0	0
431	1	1	30.05268991273605	-65.8165411252897	42.18359008316116	0	0	0
432	1	1	30.88639211483439	-66.00747373370322	41.66543433701837	0	0	0
433	1	1	31.72009431693273	-65.65420399863345	41.24100397465004	0	0	0
434	1	1	32.55379651903107	-65.84513660704697	40.72284822850725	0	0	0
435	1	1	33.387498721129404	-65.4918668719772	40.29841786613893	0	0	0
436	1	1	34.22120092322774	-65.68279948039071	39.78026211999614	0	0	0
437	1	1	35.05490312532608	-65.32952974532094	39.35583175762781	0	0	0
438	1	1	35.888605327424415	-65.52046235373446	38.83767601148502	0	0	0
439	1	1	36.72230752952275	-65.16719261866469	38.413245649116696	0	0	0
440	1	1	37.55600973162109	-65.3581252270782	37.89508990297391	0	0	0
441	1	1	38.389711933719425	-65.00485549200843	37.47065954060558	0	0	0
442	1	1	39.22341413581776	-65.19578810042195	36.95250379446279	0	0	0
443	1	1	40.0571163379161	-64.84251836535218	36.528073432094466	0	0	0
444	1	1	40.890818540014436	-65.0334509737657	36.00991768595168	0	0	0
445	1	1	41.72452074211277	-64.68018123869592	35.58548732358335	0	0	0
446	1	1	42.55822294421111	-64.87111384710944	35.06733157744056	0	0	0
447	1	1	43.39192514630945	-64.51784411203967	34.642901215072236	0	0	0
448	1	1	44.225627348407784	-64.70877672045319	34.12474546892945	0	0	0
449	1	1	45.05932955050612	-64.35550698538341	33.70031510656112	0	0	0
450	1	1	45.89303175260446	-64.54643959379693	33.18215936041833	0	0	0
451	1	1	46.726733954702794	-64.19316985872716	32.757728998050005	0	0	0
452	1	1	47.56043615680113	-64.38410246714068	32.23957325190722	0	0	0
453	1	1	48.39413835889947	-64.0308327320709	31.81514288953889	0	0	0
454	1	1	49.227840560997805	-64.22176534048442	31.2969871433961	0	0	0
455	1	1	50.06154276309614	-63.86849560541465	30.872556781027775	0	0	0