bb400nuc3bl100bn4d30tot1000V2

1001 atoms
1000 bonds
1008 angles

1 atom types
1 bond types
1 angle types

-1000 1000 xlo xhi
-1000 1000 ylo yhi
-1000 1000 zlo zhi

Masses

1 1

Atoms

1	1	1	0.0	0.0	0.0	0	0	0
2	1	1	0.0	0.0	1.0	0	0	0
3	1	1	0.0	-0.49999999999999994	1.8660254037844388	0	0	0
4	1	1	0.0	0.0	2.7320508075688776	0	0	0
5	1	1	0.0	-0.49999999999999994	3.5980762113533165	0	0	0
6	1	1	0.0	0.0	4.464101615137755	0	0	0
7	1	1	0.0	-0.49999999999999994	5.330127018922194	0	0	0
8	1	1	0.0	0.0	6.196152422706632	0	0	0
9	1	1	0.0	-0.49999999999999994	7.06217782649107	0	0	0
10	1	1	0.0	0.0	7.928203230275509	0	0	0
11	1	1	0.0	-0.49999999999999994	8.794228634059948	0	0	0
12	1	1	0.0	0.0	9.660254037844387	0	0	0
13	1	1	0.0	-0.49999999999999994	10.526279441628827	0	0	0
14	1	1	0.0	0.0	11.392304845413266	0	0	0
15	1	1	0.0	-0.49999999999999994	12.258330249197705	0	0	0
16	1	1	0.0	0.0	13.124355652982144	0	0	0
17	1	1	0.0	-0.49999999999999994	13.990381056766584	0	0	0
18	1	1	0.0	0.0	14.856406460551023	0	0	0
19	1	1	0.0	-0.49999999999999994	15.722431864335462	0	0	0
20	1	1	0.0	0.0	16.5884572681199	0	0	0
21	1	1	0.0	-0.49999999999999994	17.454482671904337	0	0	0
22	1	1	0.0	0.0	18.320508075688775	0	0	0
23	1	1	0.0	-0.49999999999999994	19.186533479473212	0	0	0
24	1	1	0.0	0.0	20.05255888325765	0	0	0
25	1	1	0.0	-0.49999999999999994	20.918584287042087	0	0	0
26	1	1	0.0	0.0	21.784609690826525	0	0	0
27	1	1	0.0	-0.49999999999999994	22.650635094610962	0	0	0
28	1	1	0.0	0.0	23.5166604983954	0	0	0
29	1	1	0.0	-0.49999999999999994	24.382685902179837	0	0	0
30	1	1	0.0	0.0	25.248711305964274	0	0	0
31	1	1	0.0	-0.49999999999999994	26.114736709748712	0	0	0
32	1	1	0.0	0.0	26.98076211353315	0	0	0
33	1	1	0.0	-0.49999999999999994	27.846787517317587	0	0	0
34	1	1	0.0	0.0	28.712812921102024	0	0	0
35	1	1	0.0	-0.49999999999999994	29.578838324886462	0	0	0
36	1	1	0.0	0.0	30.4448637286709	0	0	0
37	1	1	0.0	-0.49999999999999994	31.310889132455337	0	0	0
38	1	1	0.0	0.0	32.17691453623978	0	0	0
39	1	1	0.0	-0.49999999999999994	33.04293994002422	0	0	0
40	1	1	0.0	0.0	33.90896534380866	0	0	0
41	1	1	0.0	-0.49999999999999994	34.7749907475931	0	0	0
42	1	1	0.0	0.0	35.64101615137754	0	0	0
43	1	1	0.0	-0.49999999999999994	36.50704155516198	0	0	0
44	1	1	0.0	0.0	37.373066958946424	0	0	0
45	1	1	0.0	-0.49999999999999994	38.239092362730865	0	0	0
46	1	1	0.0	0.0	39.105117766515306	0	0	0
47	1	1	0.0	-0.49999999999999994	39.97114317029975	0	0	0
48	1	1	0.0	0.0	40.83716857408419	0	0	0
49	1	1	0.0	-0.49999999999999994	41.70319397786863	0	0	0
50	1	1	0.0	0.0	42.56921938165307	0	0	0
51	1	1	0.0	-0.49999999999999994	43.43524478543751	0	0	0
52	1	1	0.0	0.0	44.30127018922195	0	0	0
53	1	1	0.0	-0.49999999999999994	45.16729559300639	0	0	0
54	1	1	0.0	0.0	46.033320996790835	0	0	0
55	1	1	0.0	-0.49999999999999994	46.899346400575276	0	0	0
56	1	1	0.0	0.0	47.76537180435972	0	0	0
57	1	1	0.0	-0.49999999999999994	48.63139720814416	0	0	0
58	1	1	0.0	0.0	49.4974226119286	0	0	0
59	1	1	0.0	-0.49999999999999994	50.36344801571304	0	0	0
60	1	1	0.0	0.0	51.22947341949748	0	0	0
61	1	1	0.0	-0.49999999999999994	52.09549882328192	0	0	0
62	1	1	0.0	0.0	52.96152422706636	0	0	0
63	1	1	0.0	-0.49999999999999994	53.827549630850804	0	0	0
64	1	1	0.0	0.0	54.693575034635245	0	0	0
65	1	1	0.0	-0.49999999999999994	55.559600438419686	0	0	0
66	1	1	0.0	0.0	56.42562584220413	0	0	0
67	1	1	0.0	-0.49999999999999994	57.29165124598857	0	0	0
68	1	1	0.0	0.0	58.15767664977301	0	0	0
69	1	1	0.0	-0.49999999999999994	59.02370205355745	0	0	0
70	1	1	0.0	0.0	59.88972745734189	0	0	0
71	1	1	0.0	-0.49999999999999994	60.75575286112633	0	0	0
72	1	1	0.0	0.0	61.62177826491077	0	0	0
73	1	1	0.0	-0.49999999999999994	62.487803668695214	0	0	0
74	1	1	0.0	0.0	63.353829072479655	0	0	0
75	1	1	0.0	-0.49999999999999994	64.21985447626409	0	0	0
76	1	1	0.0	0.0	65.08587988004852	0	0	0
77	1	1	0.0	-0.49999999999999994	65.95190528383296	0	0	0
78	1	1	0.0	0.0	66.81793068761739	0	0	0
79	1	1	0.0	-0.49999999999999994	67.68395609140183	0	0	0
80	1	1	0.0	0.0	68.54998149518626	0	0	0
81	1	1	0.0	-0.49999999999999994	69.41600689897069	0	0	0
82	1	1	0.0	0.0	70.28203230275513	0	0	0
83	1	1	0.0	-0.49999999999999994	71.14805770653956	0	0	0
84	1	1	0.0	0.0	72.014083110324	0	0	0
85	1	1	0.0	-0.49999999999999994	72.88010851410843	0	0	0
86	1	1	0.0	0.0	73.74613391789286	0	0	0
87	1	1	0.0	-0.49999999999999994	74.6121593216773	0	0	0
88	1	1	0.0	0.0	75.47818472546173	0	0	0
89	1	1	0.0	-0.49999999999999994	76.34421012924616	0	0	0
90	1	1	0.0	0.0	77.2102355330306	0	0	0
91	1	1	0.0	-0.49999999999999994	78.07626093681503	0	0	0
92	1	1	0.0	0.0	78.94228634059947	0	0	0
93	1	1	0.0	-0.49999999999999994	79.8083117443839	0	0	0
94	1	1	0.0	0.0	80.67433714816833	0	0	0
95	1	1	0.0	-0.49999999999999994	81.54036255195277	0	0	0
96	1	1	0.0	0.0	82.4063879557372	0	0	0
97	1	1	0.0	-0.49999999999999994	83.27241335952164	0	0	0
98	1	1	0.0	0.0	84.13843876330607	0	0	0
99	1	1	0.0	-0.49999999999999994	85.0044641670905	0	0	0
100	1	1	0.0	0.0	85.87048957087494	0	0	0
101	1	1	0.0	-0.49999999999999994	86.73651497465937	0	0	0
102	1	1	-0.9387015042769047	-0.7414644780776314	86.98255235331344	0	0	0
103	1	1	-1.8774030085538134	-1.0735975395314459	87.07489473446958	0	0	0
104	1	1	-2.816104512830722	-1.159693222331192	87.40870159370336	0	0	0
105	1	1	-3.7548060171076307	-1.4918262837850065	87.5010439748595	0	0	0
106	1	1	-4.693507521384539	-1.5779219665847526	87.83485083409327	0	0	0
107	1	1	-5.632209025661448	-1.910055028038567	87.92719321524942	0	0	0
108	1	1	-6.570910529938356	-1.9961507108383132	88.26100007448319	0	0	0
109	1	1	-7.509612034215264	-2.328283772292128	88.35334245563934	0	0	0
110	1	1	-8.448313538492172	-2.4143794550918742	88.68714931487311	0	0	0
111	1	1	-9.38701504276908	-2.746512516545689	88.77949169602925	0	0	0
112	1	1	-10.325716547045989	-2.8326081993454353	89.11329855526303	0	0	0
113	1	1	-11.264418051322897	-3.16474126079925	89.20564093641917	0	0	0
114	1	1	-12.203119555599805	-3.2508369435989963	89.53944779565295	0	0	0
115	1	1	-13.141821059876714	-3.582970005052811	89.63179017680909	0	0	0
116	1	1	-14.080522564153622	-3.6690656878525574	89.96559703604287	0	0	0
117	1	1	-15.01922406843053	-4.001198749306372	90.05793941719901	0	0	0
118	1	1	-15.957925572707438	-4.087294432106118	90.39174627643278	0	0	0
119	1	1	-16.89662707698435	-4.419427493559932	90.48408865758893	0	0	0
120	1	1	-17.83532858126126	-4.505523176359678	90.8178955168227	0	0	0
121	1	1	-18.77403008553817	-4.837656237813492	90.91023789797885	0	0	0
122	1	1	-19.71273158981508	-4.923751920613238	91.24404475721262	0	0	0
123	1	1	-20.65143309409199	-5.255884982067053	91.33638713836876	0	0	0
124	1	1	-21.5901345983689	-5.3419806648667985	91.67019399760254	0	0	0
125	1	1	-22.52883610264581	-5.674113726320613	91.76253637875868	0	0	0
126	1	1	-23.46753760692272	-5.760209409120359	92.09634323799246	0	0	0
127	1	1	-24.40623911119963	-6.092342470574173	92.1886856191486	0	0	0
128	1	1	-25.34494061547654	-6.178438153373919	92.52249247838238	0	0	0
129	1	1	-26.28364211975345	-6.510571214827733	92.61483485953852	0	0	0
130	1	1	-27.22234362403036	-6.596666897627479	92.9486417187723	0	0	0
131	1	1	-28.16104512830727	-6.928799959081293	93.04098409992844	0	0	0
132	1	1	-29.09974663258418	-7.014895641881039	93.37479095916221	0	0	0
133	1	1	-30.03844813686109	-7.347028703334853	93.46713334031836	0	0	0
134	1	1	-30.977149641138	-7.433124386134599	93.80094019955213	0	0	0
135	1	1	-31.91585114541491	-7.7652574475884135	93.89328258070827	0	0	0
136	1	1	-32.85455264969182	-7.851353130388159	94.22708943994205	0	0	0
137	1	1	-33.793254153968725	-8.183486191841974	94.31943182109819	0	0	0
138	1	1	-34.73195565824563	-8.26958187464172	94.65323868033197	0	0	0
139	1	1	-35.67065716252254	-8.601714936095535	94.74558106148811	0	0	0
140	1	1	-36.609358666799444	-8.68781061889528	95.07938792072189	0	0	0
141	1	1	-37.54806017107635	-9.019943680349096	95.17173030187803	0	0	0
142	1	1	-38.48676167535326	-9.106039363148842	95.5055371611118	0	0	0
143	1	1	-39.425463179630164	-9.438172424602657	95.59787954226795	0	0	0
144	1	1	-40.36416468390707	-9.524268107402403	95.93168640150172	0	0	0
145	1	1	-41.30286618818398	-9.856401168856218	96.02402878265787	0	0	0
146	1	1	-42.24156769246088	-9.942496851655964	96.35783564189164	0	0	0
147	1	1	-43.18026919673779	-10.274629913109779	96.45017802304778	0	0	0
148	1	1	-44.118970701014696	-10.360725595909525	96.78398488228156	0	0	0
149	1	1	-45.0576722052916	-10.69285865736334	96.8763272634377	0	0	0
150	1	1	-45.99637370956851	-10.778954340163086	97.21013412267148	0	0	0
151	1	1	-46.935075213845415	-11.111087401616901	97.30247650382762	0	0	0
152	1	1	-47.87377671812232	-11.197183084416647	97.6362833630614	0	0	0
153	1	1	-48.81247822239923	-11.529316145870462	97.72862574421754	0	0	0
154	1	1	-49.751179726676135	-11.615411828670208	98.06243260345131	0	0	0
155	1	1	-50.68988123095304	-11.947544890124023	98.15477498460746	0	0	0
156	1	1	-51.62858273522995	-12.033640572923769	98.48858184384123	0	0	0
157	1	1	-52.567284239506854	-12.365773634377584	98.58092422499737	0	0	0
158	1	1	-53.50598574378376	-12.45186931717733	98.91473108423115	0	0	0
159	1	1	-54.44468724806067	-12.784002378631145	99.0070734653873	0	0	0
160	1	1	-55.383388752337574	-12.870098061430891	99.34088032462107	0	0	0
161	1	1	-56.32209025661448	-13.202231122884706	99.43322270577721	0	0	0
162	1	1	-57.26079176089139	-13.288326805684452	99.76702956501099	0	0	0
163	1	1	-58.19949326516829	-13.620459867138267	99.85937194616713	0	0	0
164	1	1	-59.1381947694452	-13.706555549938013	100.1931788054009	0	0	0
165	1	1	-60.076896273722106	-14.038688611391828	100.28552118655705	0	0	0
166	1	1	-61.01559777799901	-14.124784294191574	100.61932804579082	0	0	0
167	1	1	-61.95429928227592	-14.45691735564539	100.71167042694697	0	0	0
168	1	1	-62.893000786552825	-14.543013038445135	101.04547728618074	0	0	0
169	1	1	-63.83170229082973	-14.87514609989895	101.13781966733688	0	0	0
170	1	1	-64.77040379510665	-14.961241782698696	101.47162652657066	0	0	0
171	1	1	-65.70910529938355	-15.293374844152511	101.5639689077268	0	0	0
172	1	1	-66.64780680366046	-15.379470526952257	101.89777576696058	0	0	0
173	1	1	-67.58650830793736	-15.711603588406073	101.99011814811672	0	0	0
174	1	1	-68.52520981221427	-15.797699271205818	102.3239250073505	0	0	0
175	1	1	-69.46391131649118	-16.129832332659632	102.41626738850664	0	0	0
176	1	1	-70.40261282076808	-16.21592801545938	102.75007424774041	0	0	0
177	1	1	-71.34131432504499	-16.548061076913193	102.84241662889656	0	0	0
178	1	1	-72.2800158293219	-16.63415675971294	103.17622348813033	0	0	0
179	1	1	-73.2187173335988	-16.966289821166754	103.26856586928648	0	0	0
180	1	1	-74.15741883787571	-17.0523855039665	103.60237272852025	0	0	0
181	1	1	-75.09612034215262	-17.384518565420315	103.6947151096764	0	0	0
182	1	1	-76.03482184642952	-17.470614248220063	104.02852196891017	0	0	0
183	1	1	-76.97352335070643	-17.802747309673876	104.12086435006631	0	0	0
184	1	1	-77.91222485498334	-17.888842992473624	104.45467120930009	0	0	0
185	1	1	-78.85092635926024	-18.220976053927437	104.54701359045623	0	0	0
186	1	1	-79.78962786353715	-18.307071736727185	104.88082044969	0	0	0
187	1	1	-80.72832936781406	-18.639204798180998	104.97316283084615	0	0	0
188	1	1	-81.66703087209096	-18.725300480980746	105.30696969007992	0	0	0
189	1	1	-82.60573237636787	-19.05743354243456	105.39931207123607	0	0	0
190	1	1	-83.54443388064477	-19.143529225234307	105.73311893046984	0	0	0
191	1	1	-84.48313538492168	-19.47566228668812	105.82546131162599	0	0	0
192	1	1	-85.42183688919859	-19.561757969487868	106.15926817085976	0	0	0
193	1	1	-86.3605383934755	-19.89389103094168	106.2516105520159	0	0	0
194	1	1	-87.2992398977524	-19.97998671374143	106.58541741124968	0	0	0
195	1	1	-88.2379414020293	-20.312119775195242	106.67775979240582	0	0	0
196	1	1	-89.17664290630621	-20.39821545799499	107.0115666516396	0	0	0
197	1	1	-90.11534441058312	-20.730348519448803	107.10390903279574	0	0	0
198	1	1	-91.05404591486003	-20.81644420224855	107.43771589202952	0	0	0
199	1	1	-91.99274741913693	-21.148577263702364	107.53005827318566	0	0	0
200	1	1	-92.93144892341384	-21.234672946502112	107.86386513241943	0	0	0
201	1	1	-93.87015042769075	-21.566806007955925	107.95620751357558	0	0	0
202	1	1	0.3947897036776985	0.07440322282116857	87.45359379005049	0	0	0
203	1	1	0.7895794073553986	0.2133115981043981	88.36180387210544	0	0	0
204	1	1	1.1843691110330987	1.0692987887787435	88.69561073133922	0	0	0
205	1	1	1.5791588147107989	1.2082071640619731	89.60382081339417	0	0	0
206	1	1	1.973948518388499	2.0641943547363186	89.93762767262794	0	0	0
207	1	1	2.368738222066199	2.2031027300195483	90.84583775468289	0	0	0
208	1	1	2.763527925743899	3.0590899206938937	91.17964461391666	0	0	0
209	1	1	3.158317629421599	3.1979982959771234	92.08785469597161	0	0	0
210	1	1	3.553107333099299	4.053985486651468	92.42166155520539	0	0	0
211	1	1	3.947897036776999	4.192893861934698	93.32987163726034	0	0	0
212	1	1	4.342686740454699	5.048881052609043	93.66367849649411	0	0	0
213	1	1	4.737476444132399	5.187789427892272	94.57188857854906	0	0	0
214	1	1	5.1322661478101	6.043776618566618	94.90569543778284	0	0	0
215	1	1	5.5270558514878	6.182684993849847	95.81390551983779	0	0	0
216	1	1	5.9218455551655005	7.038672184524192	96.14771237907156	0	0	0
217	1	1	6.316635258843201	7.177580559807422	97.05592246112651	0	0	0
218	1	1	6.711424962520901	8.033567750481767	97.38972932036029	0	0	0
219	1	1	7.106214666198602	8.172476125764996	98.29793940241524	0	0	0
220	1	1	7.501004369876302	9.02846331643934	98.63174626164901	0	0	0
221	1	1	7.895794073554002	9.16737169172257	99.53995634370396	0	0	0
222	1	1	8.290583777231703	10.023358882396915	99.87376320293774	0	0	0
223	1	1	8.685373480909403	10.162267257680144	100.78197328499269	0	0	0
224	1	1	9.080163184587104	11.018254448354488	101.11578014422646	0	0	0
225	1	1	9.474952888264804	11.157162823637718	102.02399022628141	0	0	0
226	1	1	9.869742591942504	12.013150014312062	102.35779708551519	0	0	0
227	1	1	10.264532295620205	12.152058389595291	103.26600716757014	0	0	0
228	1	1	10.659321999297905	13.008045580269636	103.59981402680391	0	0	0
229	1	1	11.054111702975606	13.146953955552865	104.50802410885886	0	0	0
230	1	1	11.448901406653306	14.00294114622721	104.84183096809264	0	0	0
231	1	1	11.843691110331006	14.141849521510439	105.75004105014759	0	0	0
232	1	1	12.238480814008707	14.997836712184784	106.08384790938136	0	0	0
233	1	1	12.633270517686407	15.136745087468013	106.99205799143631	0	0	0
234	1	1	13.028060221364107	15.992732278142357	107.32586485067009	0	0	0
235	1	1	13.422849925041808	16.13164065342559	108.23407493272504	0	0	0
236	1	1	13.817639628719508	16.987627844099933	108.56788179195881	0	0	0
237	1	1	14.212429332397209	17.126536219383162	109.47609187401376	0	0	0
238	1	1	14.607219036074909	17.982523410057507	109.80989873324754	0	0	0
239	1	1	15.00200873975261	18.121431785340736	110.71810881530249	0	0	0
240	1	1	15.39679844343031	18.97741897601508	111.05191567453626	0	0	0
241	1	1	15.79158814710801	19.11632735129831	111.96012575659121	0	0	0
242	1	1	16.18637785078571	19.972314541972654	112.29393261582499	0	0	0
243	1	1	16.58116755446341	20.111222917255883	113.20214269787994	0	0	0
244	1	1	16.975957258141108	20.967210107930228	113.53594955711371	0	0	0
245	1	1	17.370746961818806	21.106118483213457	114.44415963916866	0	0	0
246	1	1	17.765536665496505	21.9621056738878	114.77796649840244	0	0	0
247	1	1	18.160326369174204	22.10101404917103	115.68617658045738	0	0	0
248	1	1	18.555116072851902	22.957001239845376	116.01998343969116	0	0	0
249	1	1	18.9499057765296	23.095909615128605	116.92819352174611	0	0	0
250	1	1	19.3446954802073	23.95189680580295	117.26200038097988	0	0	0
251	1	1	19.739485183884998	24.09080518108618	118.17021046303483	0	0	0
252	1	1	20.134274887562697	24.946792371760523	118.50401732226861	0	0	0
253	1	1	20.529064591240395	25.085700747043752	119.41222740432356	0	0	0
254	1	1	20.923854294918094	25.941687937718097	119.74603426355733	0	0	0
255	1	1	21.318643998595793	26.080596313001326	120.65424434561228	0	0	0
256	1	1	21.71343370227349	26.93658350367567	120.98805120484606	0	0	0
257	1	1	22.10822340595119	27.0754918789589	121.89626128690101	0	0	0
258	1	1	22.50301310962889	27.931479069633244	122.23006814613478	0	0	0
259	1	1	22.897802813306587	28.070387444916474	123.13827822818973	0	0	0
260	1	1	23.292592516984286	28.92637463559082	123.47208508742351	0	0	0
261	1	1	23.687382220661984	29.065283010874047	124.38029516947846	0	0	0
262	1	1	24.082171924339683	29.921270201548392	124.71410202871223	0	0	0
263	1	1	24.47696162801738	30.06017857683162	125.62231211076718	0	0	0
264	1	1	24.87175133169508	30.916165767505966	125.95611897000096	0	0	0
265	1	1	25.26654103537278	31.055074142789195	126.86432905205591	0	0	0
266	1	1	25.661330739050477	31.91106133346354	127.19813591128968	0	0	0
267	1	1	26.056120442728176	32.04996970874677	128.10634599334463	0	0	0
268	1	1	26.450910146405874	32.90595689942112	128.4401528525784	0	0	0
269	1	1	26.845699850083573	33.04486527470435	129.34836293463334	0	0	0
270	1	1	27.24048955376127	33.9008524653787	129.6821697938671	0	0	0
271	1	1	27.63527925743897	34.03976084066193	130.59037987592205	0	0	0
272	1	1	28.03006896111667	34.895748031336275	130.9241867351558	0	0	0
273	1	1	28.424858664794368	35.034656406619504	131.83239681721076	0	0	0
274	1	1	28.819648368472066	35.89064359729385	132.16620367644452	0	0	0
275	1	1	29.214438072149765	36.02955197257708	133.07441375849947	0	0	0
276	1	1	29.609227775827463	36.88553916325143	133.40822061773324	0	0	0
277	1	1	30.004017479505162	37.02444753853466	134.31643069978819	0	0	0
278	1	1	30.39880718318286	37.88043472920901	134.65023755902195	0	0	0
279	1	1	30.79359688686056	38.019343104492236	135.5584476410769	0	0	0
280	1	1	31.188386590538258	38.875330295166584	135.89225450031066	0	0	0
281	1	1	31.583176294215956	39.014238670449814	136.8004645823656	0	0	0
282	1	1	31.977965997893655	39.87022586112416	137.13427144159937	0	0	0
283	1	1	32.37275570157136	40.00913423640739	138.04248152365432	0	0	0
284	1	1	32.76754540524906	40.86512142708174	138.37628838288808	0	0	0
285	1	1	33.16233510892676	41.00402980236497	139.28449846494303	0	0	0
286	1	1	33.557124812604464	41.860016993039316	139.6183053241768	0	0	0
287	1	1	33.951914516282166	41.998925368322546	140.52651540623174	0	0	0
288	1	1	34.34670421995987	42.854912558996894	140.8603222654655	0	0	0
289	1	1	34.74149392363757	42.99382093428012	141.76853234752045	0	0	0
290	1	1	35.13628362731527	43.84980812495447	142.1023392067542	0	0	0
291	1	1	35.531073330992974	43.9887165002377	143.01054928880916	0	0	0
292	1	1	35.92586303467068	44.84470369091205	143.34435614804292	0	0	0
293	1	1	36.32065273834838	44.98361206619528	144.25256623009787	0	0	0
294	1	1	36.71544244202608	45.839599256869626	144.58637308933163	0	0	0
295	1	1	37.11023214570378	45.978507632152855	145.49458317138658	0	0	0
296	1	1	37.505021849381485	46.8344948228272	145.82839003062034	0	0	0
297	1	1	37.89981155305919	46.97340319811043	146.7366001126753	0	0	0
298	1	1	38.29460125673689	47.82939038878478	147.07040697190905	0	0	0
299	1	1	38.68939096041459	47.96829876406801	147.978617053964	0	0	0
300	1	1	39.084180664092294	48.82428595474236	148.31242391319776	0	0	0
301	1	1	39.478970367769996	48.96319433002559	149.2206339952527	0	0	0
302	1	1	0.5439118005992126	-1.3336490335941815	86.64065444077602	0	0	0
303	1	1	1.0878236011984275	-2.0076800075854155	86.14081226641561	0	0	0
304	1	1	1.6317354017976422	-2.7775715154600036	86.47461912564938	0	0	0
305	1	1	2.175647202396857	-3.4516024894512376	85.97477695128897	0	0	0
306	1	1	2.719559002996072	-4.221493997325826	86.30858381052275	0	0	0
307	1	1	3.263470803595287	-4.8955249713170605	85.80874163616234	0	0	0
308	1	1	3.807382604194502	-5.665416479191649	86.14254849539611	0	0	0
309	1	1	4.351294404793717	-6.339447453182883	85.6427063210357	0	0	0
310	1	1	4.895206205392932	-7.109338961057471	85.97651318026948	0	0	0
311	1	1	5.439118005992147	-7.783369935048706	85.47667100590907	0	0	0
312	1	1	5.983029806591362	-8.553261442923294	85.81047786514284	0	0	0
313	1	1	6.526941607190577	-9.227292416914528	85.31063569078243	0	0	0
314	1	1	7.070853407789792	-9.997183924789116	85.64444255001621	0	0	0
315	1	1	7.614765208389007	-10.67121489878035	85.1446003756558	0	0	0
316	1	1	8.15867700898822	-11.441106406654939	85.47840723488957	0	0	0
317	1	1	8.702588809587436	-12.115137380646173	84.97856506052916	0	0	0
318	1	1	9.24650061018665	-12.885028888520761	85.31237191976294	0	0	0
319	1	1	9.790412410785866	-13.559059862511996	84.81252974540253	0	0	0
320	1	1	10.33432421138508	-14.328951370386584	85.1463366046363	0	0	0
321	1	1	10.878236011984296	-15.002982344377818	84.6464944302759	0	0	0
322	1	1	11.42214781258351	-15.772873852252406	84.98030128950967	0	0	0
323	1	1	11.966059613182725	-16.44690482624364	84.48045911514926	0	0	0
324	1	1	12.50997141378194	-17.21679633411823	84.81426597438303	0	0	0
325	1	1	13.053883214381155	-17.89082730810946	84.31442380002262	0	0	0
326	1	1	13.59779501498037	-18.660718815984048	84.6482306592564	0	0	0
327	1	1	14.141706815579585	-19.33474978997528	84.14838848489599	0	0	0
328	1	1	14.6856186161788	-20.104641297849867	84.48219534412976	0	0	0
329	1	1	15.229530416778015	-20.7786722718411	83.98235316976935	0	0	0
330	1	1	15.77344221737723	-21.548563779715685	84.31616002900313	0	0	0
331	1	1	16.317354017976445	-22.222594753706918	83.81631785464272	0	0	0
332	1	1	16.86126581857566	-22.992486261581504	84.1501247138765	0	0	0
333	1	1	17.405177619174875	-23.666517235572737	83.65028253951608	0	0	0
334	1	1	17.94908941977409	-24.436408743447323	83.98408939874986	0	0	0
335	1	1	18.493001220373305	-25.110439717438556	83.48424722438945	0	0	0
336	1	1	19.03691302097252	-25.880331225313142	83.81805408362322	0	0	0
337	1	1	19.580824821571735	-26.554362199304375	83.31821190926281	0	0	0
338	1	1	20.12473662217095	-27.32425370717896	83.65201876849659	0	0	0
339	1	1	20.668648422770165	-27.998284681170194	83.15217659413618	0	0	0
340	1	1	21.21256022336938	-28.76817618904478	83.48598345336995	0	0	0
341	1	1	21.756472023968595	-29.442207163036013	82.98614127900954	0	0	0
342	1	1	22.30038382456781	-30.2120986709106	83.31994813824332	0	0	0
343	1	1	22.844295625167025	-30.886129644901832	82.82010596388291	0	0	0
344	1	1	23.38820742576624	-31.656021152776418	83.15391282311668	0	0	0
345	1	1	23.932119226365455	-32.330052126767654	82.65407064875627	0	0	0
346	1	1	24.47603102696467	-33.099943634642244	82.98787750799005	0	0	0
347	1	1	25.019942827563884	-33.77397460863348	82.48803533362964	0	0	0
348	1	1	25.5638546281631	-34.54386611650807	82.82184219286341	0	0	0
349	1	1	26.107766428762314	-35.21789709049931	82.322000018503	0	0	0
350	1	1	26.65167822936153	-35.987788598373896	82.65580687773678	0	0	0
351	1	1	27.195590029960744	-36.66181957236513	82.15596470337637	0	0	0
352	1	1	27.73950183055996	-37.43171108023972	82.48977156261014	0	0	0
353	1	1	28.283413631159174	-38.10574205423096	81.98992938824973	0	0	0
354	1	1	28.82732543175839	-38.87563356210555	82.32373624748351	0	0	0
355	1	1	29.371237232357604	-39.549664536096785	81.8238940731231	0	0	0
356	1	1	29.91514903295682	-40.319556043971374	82.15770093235687	0	0	0
357	1	1	30.459060833556034	-40.99358701796261	81.65785875799646	0	0	0
358	1	1	31.00297263415525	-41.7634785258372	81.99166561723024	0	0	0
359	1	1	31.546884434754464	-42.43750949982844	81.49182344286983	0	0	0
360	1	1	32.09079623535368	-43.20740100770303	81.8256303021036	0	0	0
361	1	1	32.63470803595289	-43.88143198169426	81.3257881277432	0	0	0
362	1	1	33.1786198365521	-44.65132348956885	81.65959498697697	0	0	0
363	1	1	33.72253163715131	-45.32535446356009	81.15975281261656	0	0	0
364	1	1	34.266443437750524	-46.09524597143468	81.49355967185033	0	0	0
365	1	1	34.810355238349736	-46.769276945425915	80.99371749748992	0	0	0
366	1	1	35.35426703894895	-47.539168453300505	81.3275243567237	0	0	0
367	1	1	35.89817883954816	-48.21319942729174	80.82768218236329	0	0	0
368	1	1	36.44209064014737	-48.98309093516633	81.16148904159706	0	0	0
369	1	1	36.98600244074658	-49.65712190915757	80.66164686723666	0	0	0
370	1	1	37.52991424134579	-50.42701341703216	80.99545372647043	0	0	0
371	1	1	38.073826041945004	-51.10104439102339	80.49561155211002	0	0	0
372	1	1	38.617737842544216	-51.87093589889798	80.8294184113438	0	0	0
373	1	1	39.16164964314343	-52.54496687288922	80.32957623698339	0	0	0
374	1	1	39.70556144374264	-53.31485838076381	80.66338309621716	0	0	0
375	1	1	40.24947324434185	-53.988889354755045	80.16354092185675	0	0	0
376	1	1	40.79338504494106	-54.758780862629635	80.49734778109053	0	0	0
377	1	1	41.33729684554027	-55.43281183662087	79.99750560673012	0	0	0
378	1	1	41.881208646139484	-56.20270334449546	80.33131246596389	0	0	0
379	1	1	42.425120446738696	-56.8767343184867	79.83147029160348	0	0	0
380	1	1	42.96903224733791	-57.64662582636129	80.16527715083726	0	0	0
381	1	1	43.51294404793712	-58.32065680035252	79.66543497647685	0	0	0
382	1	1	44.05685584853633	-59.09054830822711	79.99924183571062	0	0	0
383	1	1	44.60076764913554	-59.76457928221835	79.49939966135021	0	0	0
384	1	1	45.14467944973475	-60.53447079009294	79.83320652058399	0	0	0
385	1	1	45.688591250333964	-61.208501764084176	79.33336434622358	0	0	0
386	1	1	46.232503050933175	-61.978393271958765	79.66717120545735	0	0	0
387	1	1	46.77641485153239	-62.65242424595	79.16732903109694	0	0	0
388	1	1	47.3203266521316	-63.42231575382459	79.50113589033072	0	0	0
389	1	1	47.86423845273081	-64.09634672781583	79.0012937159703	0	0	0
390	1	1	48.40815025333002	-64.86623823569042	79.33510057520408	0	0	0
391	1	1	48.95206205392923	-65.54026920968165	78.83525840084367	0	0	0
392	1	1	49.495973854528444	-66.31016071755624	79.16906526007745	0	0	0
393	1	1	50.039885655127655	-66.98419169154748	78.66922308571704	0	0	0
394	1	1	50.58379745572687	-67.75408319942207	79.00302994495081	0	0	0
395	1	1	51.12770925632608	-68.4281141734133	78.5031877705904	0	0	0
396	1	1	51.67162105692529	-69.1980056812879	78.83699462982418	0	0	0
397	1	1	52.2155328575245	-69.87203665527913	78.33715245546377	0	0	0
398	1	1	52.75944465812371	-70.64192816315372	78.67095931469754	0	0	0
399	1	1	53.303356458722924	-71.31595913714496	78.17111714033713	0	0	0
400	1	1	53.847268259322135	-72.08585064501955	78.5049239995709	0	0	0
401	1	1	54.391180059921346	-72.75988161901078	78.0050818252105	0	0	0
402	1	1	55.00769897208825	-73.22740627578767	78.6385840953297	0	0	0
403	1	1	55.62421788425515	-73.94904564051166	78.95345082621961	0	0	0
404	1	1	56.240736796422055	-74.03718273511643	79.7358422138864	0	0	0
405	1	1	56.85725570858896	-74.75882209984042	80.0507089447763	0	0	0
406	1	1	57.47377462075586	-74.84695919444519	80.8331003324431	0	0	0
407	1	1	58.090293532922765	-75.56859855916917	81.147967063333	0	0	0
408	1	1	58.70681244508967	-75.65673565377395	81.93035845099979	0	0	0
409	1	1	59.32333135725657	-76.37837501849793	82.2452251818897	0	0	0
410	1	1	59.939850269423474	-76.46651211310271	83.02761656955649	0	0	0
411	1	1	60.55636918159038	-77.1881514778267	83.34248330044639	0	0	0
412	1	1	61.17288809375728	-77.27628857243147	84.12487468811318	0	0	0
413	1	1	61.78940700592418	-77.99792793715545	84.43974141900308	0	0	0
414	1	1	62.405925918091086	-78.08606503176023	85.22213280666988	0	0	0
415	1	1	63.02244483025799	-78.80770439648421	85.53699953755978	0	0	0
416	1	1	63.63896374242489	-78.89584149108899	86.31939092522657	0	0	0
417	1	1	64.25548265459179	-79.61748085581297	86.63425765611647	0	0	0
418	1	1	64.87200156675868	-79.70561795041775	87.41664904378327	0	0	0
419	1	1	65.48852047892558	-80.42725731514173	87.73151577467317	0	0	0
420	1	1	66.10503939109248	-80.5153944097465	88.51390716233996	0	0	0
421	1	1	66.72155830325937	-81.23703377447049	88.82877389322987	0	0	0
422	1	1	67.33807721542627	-81.32517086907527	89.61116528089666	0	0	0
423	1	1	67.95459612759316	-82.04681023379925	89.92603201178656	0	0	0
424	1	1	68.57111503976006	-82.13494732840402	90.70842339945335	0	0	0
425	1	1	69.18763395192695	-82.85658669312801	91.02329013034326	0	0	0
426	1	1	69.80415286409385	-82.94472378773278	91.80568151801005	0	0	0
427	1	1	70.42067177626075	-83.66636315245677	92.12054824889995	0	0	0
428	1	1	71.03719068842764	-83.75450024706154	92.90293963656674	0	0	0
429	1	1	71.65370960059454	-84.47613961178553	93.21780636745665	0	0	0
430	1	1	72.27022851276143	-84.5642767063903	94.00019775512344	0	0	0
431	1	1	72.88674742492833	-85.28591607111429	94.31506448601334	0	0	0
432	1	1	73.50326633709523	-85.37405316571906	95.09745587368013	0	0	0
433	1	1	74.11978524926212	-86.09569253044305	95.41232260457004	0	0	0
434	1	1	74.73630416142902	-86.18382962504782	96.19471399223683	0	0	0
435	1	1	75.35282307359591	-86.9054689897718	96.50958072312673	0	0	0
436	1	1	75.96934198576281	-86.99360608437658	97.29197211079352	0	0	0
437	1	1	76.5858608979297	-87.71524544910056	97.60683884168343	0	0	0
438	1	1	77.2023798100966	-87.80338254370534	98.38923022935022	0	0	0
439	1	1	77.8188987222635	-88.52502190842932	98.70409696024012	0	0	0
440	1	1	78.4354176344304	-88.6131590030341	99.48648834790691	0	0	0
441	1	1	79.05193654659729	-89.33479836775808	99.80135507879682	0	0	0
442	1	1	79.66845545876419	-89.42293546236286	100.58374646646361	0	0	0
443	1	1	80.28497437093108	-90.14457482708684	100.89861319735351	0	0	0
444	1	1	80.90149328309798	-90.23271192169162	101.6810045850203	0	0	0
445	1	1	81.51801219526487	-90.9543512864156	101.99587131591021	0	0	0
446	1	1	82.13453110743177	-91.04248838102038	102.778262703577	0	0	0
447	1	1	82.75105001959867	-91.76412774574436	103.0931294344669	0	0	0
448	1	1	83.36756893176556	-91.85226484034914	103.8755208221337	0	0	0
449	1	1	83.98408784393246	-92.57390420507312	104.1903875530236	0	0	0
450	1	1	84.60060675609935	-92.6620412996779	104.97277894069039	0	0	0
451	1	1	85.21712566826625	-93.38368066440188	105.2876456715803	0	0	0
452	1	1	85.83364458043314	-93.47181775900665	106.07003705924708	0	0	0
453	1	1	86.45016349260004	-94.19345712373064	106.38490379013699	0	0	0
454	1	1	87.06668240476694	-94.28159421833541	107.16729517780378	0	0	0
455	1	1	87.68320131693383	-95.0032335830594	107.48216190869368	0	0	0
456	1	1	88.29972022910073	-95.09137067766417	108.26455329636048	0	0	0
457	1	1	88.91623914126762	-95.81301004238816	108.57942002725038	0	0	0
458	1	1	89.53275805343452	-95.90114713699293	109.36181141491717	0	0	0
459	1	1	90.14927696560142	-96.62278650171692	109.67667814580707	0	0	0
460	1	1	90.76579587776831	-96.71092359632169	110.45906953347387	0	0	0