bb480nuc3bl120bn4d30tot1200V2

1201 atoms
1200 bonds
1208 angles

1 atom types
1 bond types
1 angle types

-1000 1000 xlo xhi
-1000 1000 ylo yhi
-1000 1000 zlo zhi

Masses

1 1

Atoms

1	1	1	0.0	0.0	0.0	0	0	0
2	1	1	0.0	0.0	1.0	0	0	0
3	1	1	0.0	-0.49999999999999994	1.8660254037844388	0	0	0
4	1	1	0.0	0.0	2.7320508075688776	0	0	0
5	1	1	0.0	-0.49999999999999994	3.5980762113533165	0	0	0
6	1	1	0.0	0.0	4.464101615137755	0	0	0
7	1	1	0.0	-0.49999999999999994	5.330127018922194	0	0	0
8	1	1	0.0	0.0	6.196152422706632	0	0	0
9	1	1	0.0	-0.49999999999999994	7.06217782649107	0	0	0
10	1	1	0.0	0.0	7.928203230275509	0	0	0
11	1	1	0.0	-0.49999999999999994	8.794228634059948	0	0	0
12	1	1	0.0	0.0	9.660254037844387	0	0	0
13	1	1	0.0	-0.49999999999999994	10.526279441628827	0	0	0
14	1	1	0.0	0.0	11.392304845413266	0	0	0
15	1	1	0.0	-0.49999999999999994	12.258330249197705	0	0	0
16	1	1	0.0	0.0	13.124355652982144	0	0	0
17	1	1	0.0	-0.49999999999999994	13.990381056766584	0	0	0
18	1	1	0.0	0.0	14.856406460551023	0	0	0
19	1	1	0.0	-0.49999999999999994	15.722431864335462	0	0	0
20	1	1	0.0	0.0	16.5884572681199	0	0	0
21	1	1	0.0	-0.49999999999999994	17.454482671904337	0	0	0
22	1	1	0.0	0.0	18.320508075688775	0	0	0
23	1	1	0.0	-0.49999999999999994	19.186533479473212	0	0	0
24	1	1	0.0	0.0	20.05255888325765	0	0	0
25	1	1	0.0	-0.49999999999999994	20.918584287042087	0	0	0
26	1	1	0.0	0.0	21.784609690826525	0	0	0
27	1	1	0.0	-0.49999999999999994	22.650635094610962	0	0	0
28	1	1	0.0	0.0	23.5166604983954	0	0	0
29	1	1	0.0	-0.49999999999999994	24.382685902179837	0	0	0
30	1	1	0.0	0.0	25.248711305964274	0	0	0
31	1	1	0.0	-0.49999999999999994	26.114736709748712	0	0	0
32	1	1	0.0	0.0	26.98076211353315	0	0	0
33	1	1	0.0	-0.49999999999999994	27.846787517317587	0	0	0
34	1	1	0.0	0.0	28.712812921102024	0	0	0
35	1	1	0.0	-0.49999999999999994	29.578838324886462	0	0	0
36	1	1	0.0	0.0	30.4448637286709	0	0	0
37	1	1	0.0	-0.49999999999999994	31.310889132455337	0	0	0
38	1	1	0.0	0.0	32.17691453623978	0	0	0
39	1	1	0.0	-0.49999999999999994	33.04293994002422	0	0	0
40	1	1	0.0	0.0	33.90896534380866	0	0	0
41	1	1	0.0	-0.49999999999999994	34.7749907475931	0	0	0
42	1	1	0.0	0.0	35.64101615137754	0	0	0
43	1	1	0.0	-0.49999999999999994	36.50704155516198	0	0	0
44	1	1	0.0	0.0	37.373066958946424	0	0	0
45	1	1	0.0	-0.49999999999999994	38.239092362730865	0	0	0
46	1	1	0.0	0.0	39.105117766515306	0	0	0
47	1	1	0.0	-0.49999999999999994	39.97114317029975	0	0	0
48	1	1	0.0	0.0	40.83716857408419	0	0	0
49	1	1	0.0	-0.49999999999999994	41.70319397786863	0	0	0
50	1	1	0.0	0.0	42.56921938165307	0	0	0
51	1	1	0.0	-0.49999999999999994	43.43524478543751	0	0	0
52	1	1	0.0	0.0	44.30127018922195	0	0	0
53	1	1	0.0	-0.49999999999999994	45.16729559300639	0	0	0
54	1	1	0.0	0.0	46.033320996790835	0	0	0
55	1	1	0.0	-0.49999999999999994	46.899346400575276	0	0	0
56	1	1	0.0	0.0	47.76537180435972	0	0	0
57	1	1	0.0	-0.49999999999999994	48.63139720814416	0	0	0
58	1	1	0.0	0.0	49.4974226119286	0	0	0
59	1	1	0.0	-0.49999999999999994	50.36344801571304	0	0	0
60	1	1	0.0	0.0	51.22947341949748	0	0	0
61	1	1	0.0	-0.49999999999999994	52.09549882328192	0	0	0
62	1	1	0.0	0.0	52.96152422706636	0	0	0
63	1	1	0.0	-0.49999999999999994	53.827549630850804	0	0	0
64	1	1	0.0	0.0	54.693575034635245	0	0	0
65	1	1	0.0	-0.49999999999999994	55.559600438419686	0	0	0
66	1	1	0.0	0.0	56.42562584220413	0	0	0
67	1	1	0.0	-0.49999999999999994	57.29165124598857	0	0	0
68	1	1	0.0	0.0	58.15767664977301	0	0	0
69	1	1	0.0	-0.49999999999999994	59.02370205355745	0	0	0
70	1	1	0.0	0.0	59.88972745734189	0	0	0
71	1	1	0.0	-0.49999999999999994	60.75575286112633	0	0	0
72	1	1	0.0	0.0	61.62177826491077	0	0	0
73	1	1	0.0	-0.49999999999999994	62.487803668695214	0	0	0
74	1	1	0.0	0.0	63.353829072479655	0	0	0
75	1	1	0.0	-0.49999999999999994	64.21985447626409	0	0	0
76	1	1	0.0	0.0	65.08587988004852	0	0	0
77	1	1	0.0	-0.49999999999999994	65.95190528383296	0	0	0
78	1	1	0.0	0.0	66.81793068761739	0	0	0
79	1	1	0.0	-0.49999999999999994	67.68395609140183	0	0	0
80	1	1	0.0	0.0	68.54998149518626	0	0	0
81	1	1	0.0	-0.49999999999999994	69.41600689897069	0	0	0
82	1	1	0.0	0.0	70.28203230275513	0	0	0
83	1	1	0.0	-0.49999999999999994	71.14805770653956	0	0	0
84	1	1	0.0	0.0	72.014083110324	0	0	0
85	1	1	0.0	-0.49999999999999994	72.88010851410843	0	0	0
86	1	1	0.0	0.0	73.74613391789286	0	0	0
87	1	1	0.0	-0.49999999999999994	74.6121593216773	0	0	0
88	1	1	0.0	0.0	75.47818472546173	0	0	0
89	1	1	0.0	-0.49999999999999994	76.34421012924616	0	0	0
90	1	1	0.0	0.0	77.2102355330306	0	0	0
91	1	1	0.0	-0.49999999999999994	78.07626093681503	0	0	0
92	1	1	0.0	0.0	78.94228634059947	0	0	0
93	1	1	0.0	-0.49999999999999994	79.8083117443839	0	0	0
94	1	1	0.0	0.0	80.67433714816833	0	0	0
95	1	1	0.0	-0.49999999999999994	81.54036255195277	0	0	0
96	1	1	0.0	0.0	82.4063879557372	0	0	0
97	1	1	0.0	-0.49999999999999994	83.27241335952164	0	0	0
98	1	1	0.0	0.0	84.13843876330607	0	0	0
99	1	1	0.0	-0.49999999999999994	85.0044641670905	0	0	0
100	1	1	0.0	0.0	85.87048957087494	0	0	0
101	1	1	0.0	-0.49999999999999994	86.73651497465937	0	0	0
102	1	1	0.0	0.0	87.6025403784438	0	0	0
103	1	1	0.0	-0.49999999999999994	88.46856578222824	0	0	0
104	1	1	0.0	0.0	89.33459118601267	0	0	0
105	1	1	0.0	-0.49999999999999994	90.20061658979711	0	0	0
106	1	1	0.0	0.0	91.06664199358154	0	0	0
107	1	1	0.0	-0.49999999999999994	91.93266739736598	0	0	0
108	1	1	0.0	0.0	92.79869280115041	0	0	0
109	1	1	0.0	-0.49999999999999994	93.66471820493484	0	0	0
110	1	1	0.0	0.0	94.53074360871928	0	0	0
111	1	1	0.0	-0.49999999999999994	95.39676901250371	0	0	0
112	1	1	0.0	0.0	96.26279441628814	0	0	0
113	1	1	0.0	-0.49999999999999994	97.12881982007258	0	0	0
114	1	1	0.0	0.0	97.99484522385701	0	0	0
115	1	1	0.0	-0.49999999999999994	98.86087062764145	0	0	0
116	1	1	0.0	0.0	99.72689603142588	0	0	0
117	1	1	0.0	-0.49999999999999994	100.59292143521031	0	0	0
118	1	1	0.0	0.0	101.45894683899475	0	0	0
119	1	1	0.0	-0.49999999999999994	102.32497224277918	0	0	0
120	1	1	0.0	0.0	103.19099764656362	0	0	0
121	1	1	0.0	-0.49999999999999994	104.05702305034805	0	0	0
122	1	1	0.36898128864872687	0.08430848590143308	104.77982067204495	0	0	0
123	1	1	0.7379625772974552	0.22893566749044728	105.69793601718015	0	0	0
124	1	1	1.1069438659461834	1.0963604707763621	106.03174287641393	0	0	0
125	1	1	1.4759251545949117	1.2409876523653762	106.94985822154914	0	0	0
126	1	1	1.84490644324364	2.108412455651291	107.28366508078291	0	0	0
127	1	1	2.213887731892368	2.253039637240305	108.20178042591812	0	0	0
128	1	1	2.5828690205410965	3.12046444052622	108.53558728515189	0	0	0
129	1	1	2.9518503091898247	3.2650916221152344	109.4537026302871	0	0	0
130	1	1	3.320831597838553	4.132516425401149	109.78750948952087	0	0	0
131	1	1	3.6898128864872812	4.277143606990163	110.70562483465608	0	0	0
132	1	1	4.0587941751360095	5.144568410276078	111.03943169388985	0	0	0
133	1	1	4.427775463784738	5.2891955918650915	111.95754703902506	0	0	0
134	1	1	4.796756752433467	6.156620395151006	112.29135389825883	0	0	0
135	1	1	5.165738041082196	6.30124757674002	113.20946924339404	0	0	0
136	1	1	5.534719329730924	7.168672380025935	113.54327610262781	0	0	0
137	1	1	5.903700618379653	7.313299561614949	114.46139144776302	0	0	0
138	1	1	6.272681907028382	8.180724364900863	114.7951983069968	0	0	0
139	1	1	6.64166319567711	8.325351546489877	115.713313652132	0	0	0
140	1	1	7.010644484325839	9.19277634977579	116.04712051136578	0	0	0
141	1	1	7.379625772974568	9.337403531364805	116.96523585650098	0	0	0
142	1	1	7.7486070616232965	10.204828334650719	117.29904271573476	0	0	0
143	1	1	8.117588350272024	10.349455516239733	118.21715806086996	0	0	0
144	1	1	8.486569638920752	11.216880319525647	118.55096492010374	0	0	0
145	1	1	8.85555092756948	11.36150750111466	119.46908026523894	0	0	0
146	1	1	9.224532216218208	12.228932304400574	119.80288712447272	0	0	0
147	1	1	9.593513504866936	12.373559485989588	120.72100246960792	0	0	0
148	1	1	9.962494793515663	13.240984289275502	121.0548093288417	0	0	0
149	1	1	10.331476082164391	13.385611470864516	121.9729246739769	0	0	0
150	1	1	10.700457370813119	14.25303627415043	122.30673153321068	0	0	0
151	1	1	11.069438659461847	14.397663455739444	123.22484687834589	0	0	0
152	1	1	11.438419948110575	15.265088259025358	123.55865373757966	0	0	0
153	1	1	11.807401236759302	15.409715440614372	124.47676908271487	0	0	0
154	1	1	12.17638252540803	16.277140243900288	124.81057594194864	0	0	0
155	1	1	12.545363814056758	16.421767425489303	125.72869128708385	0	0	0
156	1	1	12.914345102705486	17.289192228775217	126.06249814631762	0	0	0
157	1	1	13.283326391354214	17.433819410364233	126.98061349145283	0	0	0
158	1	1	13.652307680002941	18.301244213650147	127.3144203506866	0	0	0
159	1	1	14.02128896865167	18.445871395239163	128.2325356958218	0	0	0
160	1	1	14.390270257300397	19.313296198525077	128.56634255505557	0	0	0
161	1	1	14.759251545949125	19.457923380114092	129.4844579001908	0	0	0
162	1	1	15.128232834597853	20.325348183400006	129.81826475942455	0	0	0
163	1	1	15.49721412324658	20.469975364989022	130.73638010455977	0	0	0
164	1	1	15.866195411895308	21.337400168274936	131.07018696379353	0	0	0
165	1	1	16.235176700544038	21.48202734986395	131.98830230892875	0	0	0
166	1	1	16.604157989192768	22.349452153149866	132.3221091681625	0	0	0
167	1	1	16.973139277841497	22.49407933473888	133.24022451329773	0	0	0
168	1	1	17.342120566490227	23.361504138024795	133.5740313725315	0	0	0
169	1	1	17.711101855138956	23.50613131961381	134.4921467176667	0	0	0
170	1	1	18.080083143787686	24.373556122899725	134.82595357690047	0	0	0
171	1	1	18.449064432436415	24.51818330448874	135.7440689220357	0	0	0
172	1	1	18.818045721085145	25.385608107774654	136.07787578126946	0	0	0
173	1	1	19.187027009733875	25.53023528936367	136.99599112640468	0	0	0
174	1	1	19.556008298382604	26.397660092649584	137.32979798563844	0	0	0
175	1	1	19.924989587031334	26.5422872742386	138.24791333077366	0	0	0
176	1	1	20.293970875680063	27.409712077524514	138.58172019000742	0	0	0
177	1	1	20.662952164328793	27.55433925911353	139.49983553514264	0	0	0
178	1	1	21.031933452977523	28.421764062399443	139.8336423943764	0	0	0
179	1	1	21.400914741626252	28.56639124398846	140.75175773951162	0	0	0
180	1	1	21.76989603027498	29.433816047274373	141.08556459874538	0	0	0
181	1	1	22.13887731892371	29.57844322886339	142.0036799438806	0	0	0
182	1	1	22.50785860757244	30.445868032149303	142.33748680311436	0	0	0
183	1	1	22.87683989622117	30.59049521373832	143.25560214824958	0	0	0
184	1	1	23.2458211848699	31.457920017024232	143.58940900748334	0	0	0
185	1	1	23.61480247351863	31.602547198613248	144.50752435261856	0	0	0
186	1	1	23.98378376216736	32.469972001899166	144.84133121185232	0	0	0
187	1	1	24.35276505081609	32.61459918348818	145.75944655698754	0	0	0
188	1	1	24.72174633946482	33.482023986774095	146.0932534162213	0	0	0
189	1	1	25.090727628113548	33.62665116836311	147.01136876135652	0	0	0
190	1	1	25.459708916762278	34.494075971649025	147.34517562059028	0	0	0
191	1	1	25.828690205411007	34.63870315323804	148.2632909657255	0	0	0
192	1	1	26.197671494059737	35.506127956523954	148.59709782495926	0	0	0
193	1	1	26.566652782708466	35.65075513811297	149.51521317009448	0	0	0
194	1	1	26.935634071357196	36.518179941398884	149.84902002932824	0	0	0
195	1	1	27.304615360005926	36.6628071229879	150.76713537446346	0	0	0
196	1	1	27.673596648654655	37.530231926273814	151.10094223369722	0	0	0
197	1	1	28.042577937303385	37.67485910786283	152.01905757883245	0	0	0
198	1	1	28.411559225952114	38.54228391114874	152.3528644380662	0	0	0
199	1	1	28.780540514600844	38.68691109273776	153.27097978320143	0	0	0
200	1	1	29.149521803249574	39.55433589602367	153.6047866424352	0	0	0
201	1	1	29.518503091898303	39.69896307761269	154.5229019875704	0	0	0
202	1	1	29.887484380547033	40.5663878808986	154.85670884680417	0	0	0
203	1	1	30.256465669195762	40.71101506248762	155.7748241919394	0	0	0
204	1	1	30.625446957844492	41.57843986577353	156.10863105117315	0	0	0
205	1	1	30.99442824649322	41.72306704736255	157.02674639630837	0	0	0
206	1	1	31.36340953514195	42.59049185064846	157.36055325554213	0	0	0
207	1	1	31.73239082379068	42.73511903223748	158.27866860067735	0	0	0
208	1	1	32.10137211243941	43.60254383552339	158.6124754599111	0	0	0
209	1	1	32.47035340108813	43.74717101711241	159.53059080504633	0	0	0
210	1	1	32.83933468973686	44.61459582039832	159.8643976642801	0	0	0
211	1	1	33.208315978385585	44.75922300198734	160.7825130094153	0	0	0
212	1	1	33.57729726703431	45.62664780527325	161.11631986864907	0	0	0
213	1	1	33.94627855568304	45.77127498686227	162.0344352137843	0	0	0
214	1	1	34.31525984433176	46.63869979014818	162.36824207301805	0	0	0
215	1	1	34.68424113298049	46.783326971737196	163.28635741815327	0	0	0
216	1	1	35.053222421629215	47.65075177502311	163.62016427738703	0	0	0
217	1	1	35.42220371027794	47.795378956612126	164.53827962252225	0	0	0
218	1	1	35.79118499892667	48.66280375989804	164.872086481756	0	0	0
219	1	1	36.16016628757539	48.807430941487056	165.79020182689123	0	0	0
220	1	1	36.52914757622412	49.67485574477297	166.124008686125	0	0	0
221	1	1	36.898128864872845	49.819482926361985	167.04212403126022	0	0	0
222	1	1	37.26711015352157	50.6869077296479	167.37593089049398	0	0	0
223	1	1	37.6360914421703	50.831534911236915	168.2940462356292	0	0	0
224	1	1	38.00507273081902	51.69895971452283	168.62785309486296	0	0	0
225	1	1	38.37405401946775	51.843586896111844	169.54596843999818	0	0	0
226	1	1	38.743035308116475	52.71101169939776	169.87977529923194	0	0	0
227	1	1	39.1120165967652	52.855638880986774	170.79789064436716	0	0	0
228	1	1	39.48099788541393	53.72306368427269	171.13169750360092	0	0	0
229	1	1	39.84997917406265	53.867690865861704	172.04981284873614	0	0	0
230	1	1	40.21896046271138	54.73511566914762	172.3836197079699	0	0	0
231	1	1	40.587941751360106	54.87974285073663	173.30173505310512	0	0	0
232	1	1	40.95692304000883	55.74716765402255	173.63554191233888	0	0	0
233	1	1	41.32590432865756	55.89179483561156	174.5536572574741	0	0	0
234	1	1	41.694885617306284	56.75921963889748	174.88746411670786	0	0	0
235	1	1	42.06386690595501	56.90384682048649	175.80557946184308	0	0	0
236	1	1	42.432848194603736	57.77127162377241	176.13938632107684	0	0	0
237	1	1	42.80182948325246	57.91589880536142	177.05750166621206	0	0	0
238	1	1	43.17081077190119	58.783323608647336	177.39130852544582	0	0	0
239	1	1	43.539792060549914	58.92795079023635	178.30942387058104	0	0	0
240	1	1	43.90877334919864	59.795375593522266	178.6432307298148	0	0	0
241	1	1	44.277754637847366	59.94000277511128	179.56134607495002	0	0	0
242	1	1	0.5667212711939629	-1.319245353862585	103.96947848483505	0	0	0
243	1	1	1.133442542387928	-1.9849603594834606	103.48403999020623	0	0	0
244	1	1	1.7001638135818928	-2.7382199306173316	103.81784684944	0	0	0
245	1	1	2.2668850847758577	-3.4039349362382074	103.33240835481118	0	0	0
246	1	1	2.8336063559698226	-4.157194507372078	103.66621521404495	0	0	0
247	1	1	3.4003276271637874	-4.822909512992954	103.18077671941613	0	0	0
248	1	1	3.9670488983577523	-5.576169084126825	103.5145835786499	0	0	0
249	1	1	4.533770169551717	-6.241884089747701	103.02914508402108	0	0	0
250	1	1	5.1004914407456825	-6.995143660881571	103.36295194325486	0	0	0
251	1	1	5.667212711939648	-7.660858666502447	102.87751344862603	0	0	0
252	1	1	6.233933983133613	-8.414118237636318	103.21132030785981	0	0	0
253	1	1	6.8006552543275784	-9.079833243257193	102.72588181323098	0	0	0
254	1	1	7.367376525521544	-9.833092814391064	103.05968867246476	0	0	0
255	1	1	7.934097796715509	-10.498807820011939	102.57425017783594	0	0	0
256	1	1	8.500819067909474	-11.25206739114581	102.90805703706971	0	0	0
257	1	1	9.067540339103438	-11.917782396766684	102.42261854244089	0	0	0
258	1	1	9.634261610297402	-12.671041967900555	102.75642540167466	0	0	0
259	1	1	10.200982881491367	-13.33675697352143	102.27098690704584	0	0	0
260	1	1	10.767704152685331	-14.0900165446553	102.60479376627961	0	0	0
261	1	1	11.334425423879296	-14.755731550276176	102.11935527165079	0	0	0
262	1	1	11.90114669507326	-15.508991121410046	102.45316213088456	0	0	0
263	1	1	12.467867966267224	-16.174706127030923	101.96772363625574	0	0	0
264	1	1	13.034589237461189	-16.927965698164794	102.30153049548952	0	0	0
265	1	1	13.601310508655153	-17.59368070378567	101.81609200086069	0	0	0
266	1	1	14.168031779849118	-18.34694027491954	102.14989886009447	0	0	0
267	1	1	14.734753051043082	-19.012655280540415	101.66446036546564	0	0	0
268	1	1	15.301474322237047	-19.765914851674285	101.99826722469942	0	0	0
269	1	1	15.868195593431011	-20.43162985729516	101.5128287300706	0	0	0
270	1	1	16.434916864624977	-21.18488942842903	101.84663558930437	0	0	0
271	1	1	17.001638135818943	-21.850604434049906	101.36119709467555	0	0	0
272	1	1	17.56835940701291	-22.603864005183777	101.69500395390932	0	0	0
273	1	1	18.135080678206876	-23.26957901080465	101.2095654592805	0	0	0
274	1	1	18.701801949400842	-24.022838581938522	101.54337231851427	0	0	0
275	1	1	19.26852322059481	-24.688553587559397	101.05793382388545	0	0	0
276	1	1	19.835244491788774	-25.441813158693268	101.39174068311922	0	0	0
277	1	1	20.40196576298274	-26.107528164314143	100.9063021884904	0	0	0
278	1	1	20.968687034176707	-26.860787735448014	101.24010904772418	0	0	0
279	1	1	21.535408305370673	-27.52650274106889	100.75467055309535	0	0	0
280	1	1	22.10212957656464	-28.27976231220276	101.08847741232913	0	0	0
281	1	1	22.668850847758605	-28.945477317823634	100.6030389177003	0	0	0
282	1	1	23.23557211895257	-29.698736888957505	100.93684577693408	0	0	0
283	1	1	23.802293390146538	-30.36445189457838	100.45140728230525	0	0	0
284	1	1	24.369014661340504	-31.11771146571225	100.78521414153903	0	0	0
285	1	1	24.93573593253447	-31.783426471333126	100.2997756469102	0	0	0
286	1	1	25.502457203728436	-32.536686042467	100.63358250614398	0	0	0
287	1	1	26.069178474922403	-33.20240104808787	100.14814401151516	0	0	0
288	1	1	26.63589974611637	-33.955660619221746	100.48195087074893	0	0	0
289	1	1	27.202621017310335	-34.62137562484262	99.99651237612011	0	0	0
290	1	1	27.7693422885043	-35.374635195976495	100.33031923535388	0	0	0
291	1	1	28.336063559698268	-36.04035020159737	99.84488074072506	0	0	0
292	1	1	28.902784830892234	-36.793609772731244	100.17868759995883	0	0	0
293	1	1	29.4695061020862	-37.45932477835212	99.69324910533001	0	0	0
294	1	1	30.036227373280166	-38.212584349485994	100.02705596456379	0	0	0
295	1	1	30.602948644474132	-38.87829935510687	99.54161746993496	0	0	0
296	1	1	31.1696699156681	-39.63155892624074	99.87542432916874	0	0	0
297	1	1	31.736391186862065	-40.29727393186162	99.38998583453991	0	0	0
298	1	1	32.30311245805603	-41.05053350299549	99.72379269377369	0	0	0
299	1	1	32.86983372924999	-41.71624850861637	99.23835419914487	0	0	0
300	1	1	33.43655500044395	-42.46950807975024	99.57216105837864	0	0	0
301	1	1	34.003276271637915	-43.135223085371116	99.08672256374982	0	0	0
302	1	1	34.56999754283188	-43.88848265650499	99.42052942298359	0	0	0
303	1	1	35.13671881402584	-44.554197662125866	98.93509092835477	0	0	0
304	1	1	35.7034400852198	-45.30745723325974	99.26889778758854	0	0	0
305	1	1	36.270161356413766	-45.973172238880615	98.78345929295972	0	0	0
306	1	1	36.83688262760773	-46.72643181001449	99.1172661521935	0	0	0
307	1	1	37.40360389880169	-47.392146815635364	98.63182765756467	0	0	0
308	1	1	37.970325169995654	-48.14540638676924	98.96563451679845	0	0	0
309	1	1	38.53704644118962	-48.81112139239011	98.48019602216962	0	0	0
310	1	1	39.10376771238358	-49.56438096352399	98.8140028814034	0	0	0
311	1	1	39.67048898357754	-50.23009596914486	98.32856438677457	0	0	0
312	1	1	40.237210254771504	-50.98335554027874	98.66237124600835	0	0	0
313	1	1	40.80393152596547	-51.64907054589961	98.17693275137952	0	0	0
314	1	1	41.37065279715943	-52.402330117033486	98.5107396106133	0	0	0
315	1	1	41.93737406835339	-53.06804512265436	98.02530111598448	0	0	0
316	1	1	42.504095339547355	-53.821304693788235	98.35910797521825	0	0	0
317	1	1	43.07081661074132	-54.48701969940911	97.87366948058943	0	0	0
318	1	1	43.63753788193528	-55.240279270542985	98.2074763398232	0	0	0
319	1	1	44.20425915312924	-55.90599427616386	97.72203784519438	0	0	0
320	1	1	44.770980424323206	-56.659253847297734	98.05584470442815	0	0	0
321	1	1	45.33770169551717	-57.32496885291861	97.57040620979933	0	0	0
322	1	1	45.90442296671113	-58.07822842405248	97.9042130690331	0	0	0
323	1	1	46.471144237905094	-58.74394342967336	97.41877457440428	0	0	0
324	1	1	47.037865509099056	-59.49720300080723	97.75258143363806	0	0	0
325	1	1	47.60458678029302	-60.16291800642811	97.26714293900923	0	0	0
326	1	1	48.17130805148698	-60.91617757756198	97.60094979824301	0	0	0
327	1	1	48.738029322680944	-61.58189258318286	97.11551130361418	0	0	0
328	1	1	49.30475059387491	-62.33515215431673	97.44931816284796	0	0	0
329	1	1	49.87147186506887	-63.000867159937606	96.96387966821914	0	0	0
330	1	1	50.43819313626283	-63.75412673107148	97.29768652745291	0	0	0
331	1	1	51.004914407456795	-64.41984173669236	96.81224803282409	0	0	0
332	1	1	51.57163567865076	-65.17310130782623	97.14605489205786	0	0	0
333	1	1	52.13835694984472	-65.83881631344711	96.66061639742904	0	0	0
334	1	1	52.70507822103868	-66.59207588458098	96.99442325666281	0	0	0
335	1	1	53.271799492232645	-67.25779089020186	96.50898476203399	0	0	0
336	1	1	53.83852076342661	-68.01105046133573	96.84279162126776	0	0	0
337	1	1	54.40524203462057	-68.67676546695661	96.35735312663894	0	0	0
338	1	1	54.97196330581453	-69.43002503809048	96.69115998587272	0	0	0
339	1	1	55.538684577008496	-70.09574004371136	96.20572149124389	0	0	0
340	1	1	56.10540584820246	-70.84899961484523	96.53952835047767	0	0	0
341	1	1	56.67212711939642	-71.51471462046611	96.05408985584884	0	0	0
342	1	1	57.238848390590384	-72.26797419159998	96.38789671508262	0	0	0
343	1	1	57.80556966178435	-72.93368919722086	95.9024582204538	0	0	0
344	1	1	58.37229093297831	-73.68694876835472	96.23626507968757	0	0	0
345	1	1	58.93901220417227	-74.3526637739756	95.75082658505875	0	0	0
346	1	1	59.505733475366235	-75.10592334510947	96.08463344429252	0	0	0
347	1	1	60.0724547465602	-75.77163835073036	95.5991949496637	0	0	0
348	1	1	60.63917601775416	-76.52489792186422	95.93300180889747	0	0	0
349	1	1	61.20589728894812	-77.1906129274851	95.44756331426865	0	0	0
350	1	1	61.772618560142085	-77.94387249861897	95.78137017350242	0	0	0
351	1	1	62.33933983133605	-78.60958750423985	95.2959316788736	0	0	0
352	1	1	62.90606110253001	-79.36284707537372	95.62973853810738	0	0	0
353	1	1	63.47278237372397	-80.0285620809946	95.14430004347855	0	0	0
354	1	1	64.03950364491794	-80.78182165212847	95.47810690271233	0	0	0
355	1	1	64.60622491611191	-81.44753665774935	94.9926684080835	0	0	0
356	1	1	65.17294618730588	-82.20079622888322	95.32647526731728	0	0	0
357	1	1	65.73966745849985	-82.8665112345041	94.84103677268845	0	0	0
358	1	1	66.30638872969382	-83.61977080563797	95.17484363192223	0	0	0
359	1	1	66.87311000088779	-84.28548581125885	94.6894051372934	0	0	0
360	1	1	67.43983127208176	-85.03874538239272	95.02321199652718	0	0	0
361	1	1	68.00655254327573	-85.7044603880136	94.53777350189836	0	0	0
362	1	1	-0.9357025598426811	-0.7657734208895146	104.28902565432597	0	0	0
363	1	1	-1.8714051196853656	-1.111941257019485	104.35705909267023	0	0	0
364	1	1	-2.80710767952805	-1.2261064891715432	104.690865951904	0	0	0
365	1	1	-3.7428102393707343	-1.5722743253015137	104.75889939024826	0	0	0
366	1	1	-4.678512799213419	-1.6864395574535718	105.09270624948203	0	0	0
367	1	1	-5.614215359056103	-2.0326073935835423	105.1607396878263	0	0	0
368	1	1	-6.549917918898787	-2.1467726257356006	105.49454654706007	0	0	0
369	1	1	-7.485620478741471	-2.492940461865571	105.56257998540433	0	0	0
370	1	1	-8.421323038584156	-2.6071056940176294	105.8963868446381	0	0	0
371	1	1	-9.35702559842684	-2.9532735301476	105.96442028298236	0	0	0
372	1	1	-10.292728158269526	-3.067438762299658	106.29822714221613	0	0	0
373	1	1	-11.228430718112211	-3.4136065984296287	106.3662605805604	0	0	0
374	1	1	-12.164133277954896	-3.527771830581687	106.70006743979417	0	0	0
375	1	1	-13.099835837797581	-3.8739396667116575	106.76810087813843	0	0	0
376	1	1	-14.035538397640266	-3.9881048988637158	107.1019077373722	0	0	0
377	1	1	-14.971240957482951	-4.334272734993687	107.16994117571646	0	0	0
378	1	1	-15.906943517325637	-4.448437967145745	107.50374803495023	0	0	0
379	1	1	-16.84264607716832	-4.794605803275716	107.5717814732945	0	0	0
380	1	1	-17.778348637011007	-4.908771035427774	107.90558833252827	0	0	0
381	1	1	-18.714051196853692	-5.254938871557745	107.97362177087253	0	0	0
382	1	1	-19.649753756696377	-5.3691041037098035	108.3074286301063	0	0	0
383	1	1	-20.585456316539062	-5.715271939839774	108.37546206845056	0	0	0
384	1	1	-21.521158876381747	-5.829437171991833	108.70926892768433	0	0	0
385	1	1	-22.456861436224433	-6.175605008121804	108.7773023660286	0	0	0
386	1	1	-23.392563996067118	-6.289770240273862	109.11110922526237	0	0	0
387	1	1	-24.328266555909803	-6.635938076403833	109.17914266360663	0	0	0
388	1	1	-25.263969115752488	-6.750103308555891	109.5129495228404	0	0	0
389	1	1	-26.199671675595173	-7.096271144685862	109.58098296118466	0	0	0
390	1	1	-27.135374235437858	-7.2104363768379205	109.91478982041843	0	0	0
391	1	1	-28.071076795280543	-7.556604212967891	109.98282325876269	0	0	0
392	1	1	-29.00677935512323	-7.67076944511995	110.31663011799647	0	0	0
393	1	1	-29.942481914965914	-8.01693728124992	110.38466355634073	0	0	0
394	1	1	-30.8781844748086	-8.131102513401977	110.7184704155745	0	0	0
395	1	1	-31.813887034651284	-8.477270349531947	110.78650385391876	0	0	0
396	1	1	-32.74958959449397	-8.591435581684005	111.12031071315253	0	0	0
397	1	1	-33.68529215433665	-8.937603417813975	111.18834415149679	0	0	0
398	1	1	-34.62099471417933	-9.051768649966032	111.52215101073057	0	0	0
399	1	1	-35.556697274022014	-9.397936486096002	111.59018444907483	0	0	0
400	1	1	-36.492399833864695	-9.51210171824806	111.9239913083086	0	0	0
401	1	1	-37.42810239370738	-9.85826955437803	111.99202474665286	0	0	0
402	1	1	-38.36380495355006	-9.972434786530087	112.32583160588663	0	0	0
403	1	1	-39.29950751339274	-10.318602622660057	112.39386504423089	0	0	0
404	1	1	-40.23521007323542	-10.432767854812115	112.72767190346467	0	0	0
405	1	1	-41.1709126330781	-10.778935690942085	112.79570534180893	0	0	0
406	1	1	-42.106615192920785	-10.893100923094142	113.1295122010427	0	0	0
407	1	1	-43.042317752763466	-11.239268759224112	113.19754563938696	0	0	0
408	1	1	-43.97802031260615	-11.35343399137617	113.53135249862073	0	0	0
409	1	1	-44.91372287244883	-11.69960182750614	113.59938593696499	0	0	0
410	1	1	-45.84942543229151	-11.813767059658197	113.93319279619877	0	0	0
411	1	1	-46.78512799213419	-12.159934895788167	114.00122623454303	0	0	0
412	1	1	-47.720830551976874	-12.274100127940224	114.3350330937768	0	0	0
413	1	1	-48.656533111819556	-12.620267964070194	114.40306653212106	0	0	0
414	1	1	-49.59223567166224	-12.734433196222252	114.73687339135483	0	0	0
415	1	1	-50.52793823150492	-13.080601032352222	114.80490682969909	0	0	0
416	1	1	-51.4636407913476	-13.19476626450428	115.13871368893287	0	0	0
417	1	1	-52.39934335119028	-13.54093410063425	115.20674712727713	0	0	0
418	1	1	-53.335045911032964	-13.655099332786307	115.5405539865109	0	0	0
419	1	1	-54.270748470875645	-14.001267168916277	115.60858742485516	0	0	0
420	1	1	-55.20645103071833	-14.115432401068334	115.94239428408893	0	0	0
421	1	1	-56.14215359056101	-14.461600237198304	116.01042772243319	0	0	0
422	1	1	-57.07785615040369	-14.575765469350362	116.34423458166697	0	0	0
423	1	1	-58.01355871024637	-14.921933305480332	116.41226802001123	0	0	0
424	1	1	-58.94926127008905	-15.03609853763239	116.746074879245	0	0	0
425	1	1	-59.884963829931735	-15.38226637376236	116.81410831758926	0	0	0
426	1	1	-60.820666389774416	-15.496431605914417	117.14791517682303	0	0	0
427	1	1	-61.7563689496171	-15.842599442044387	117.21594861516729	0	0	0
428	1	1	-62.69207150945978	-15.956764674196444	117.54975547440107	0	0	0
429	1	1	-63.62777406930246	-16.302932510326414	117.61778891274533	0	0	0
430	1	1	-64.56347662914514	-16.41709774247847	117.9515957719791	0	0	0
431	1	1	-65.49917918898782	-16.763265578608443	118.01962921032336	0	0	0
432	1	1	-66.4348817488305	-16.8774308107605	118.35343606955713	0	0	0
433	1	1	-67.37058430867319	-17.223598646890473	118.42146950790139	0	0	0
434	1	1	-68.30628686851587	-17.33776387904253	118.75527636713517	0	0	0
435	1	1	-69.24198942835855	-17.683931715172502	118.82330980547943	0	0	0
436	1	1	-70.17769198820123	-17.79809694732456	119.1571166647132	0	0	0
437	1	1	-71.11339454804391	-18.14426478345453	119.22515010305746	0	0	0
438	1	1	-72.0490971078866	-18.25843001560659	119.55895696229123	0	0	0
439	1	1	-72.98479966772928	-18.60459785173656	119.62699040063549	0	0	0
440	1	1	-73.92050222757196	-18.718763083888618	119.96079725986927	0	0	0
441	1	1	-74.85620478741464	-19.06493092001859	120.02883069821353	0	0	0
442	1	1	-75.79190734725732	-19.179096152170647	120.3626375574473	0	0	0
443	1	1	-76.7276099071	-19.52526398830062	120.43067099579156	0	0	0
444	1	1	-77.66331246694268	-19.639429220452676	120.76447785502533	0	0	0
445	1	1	-78.59901502678537	-19.985597056582648	120.83251129336959	0	0	0
446	1	1	-79.53471758662805	-20.099762288734706	121.16631815260337	0	0	0
447	1	1	-80.47042014647073	-20.445930124864677	121.23435159094763	0	0	0
448	1	1	-81.40612270631341	-20.560095357016735	121.5681584501814	0	0	0
449	1	1	-82.34182526615609	-20.906263193146707	121.63619188852566	0	0	0
450	1	1	-83.27752782599877	-21.020428425298764	121.96999874775943	0	0	0
451	1	1	-84.21323038584146	-21.366596261428736	122.03803218610369	0	0	0
452	1	1	-85.14893294568414	-21.480761493580793	122.37183904533747	0	0	0
453	1	1	-86.08463550552682	-21.826929329710765	122.43987248368173	0	0	0
454	1	1	-87.0203380653695	-21.941094561862823	122.7736793429155	0	0	0
455	1	1	-87.95604062521218	-22.287262397992794	122.84171278125976	0	0	0
456	1	1	-88.89174318505486	-22.401427630144852	123.17551964049353	0	0	0
457	1	1	-89.82744574489755	-22.747595466274824	123.24355307883779	0	0	0
458	1	1	-90.76314830474023	-22.86176069842688	123.57735993807157	0	0	0
459	1	1	-91.69885086458291	-23.207928534556853	123.64539337641583	0	0	0
460	1	1	-92.63455342442559	-23.32209376670891	123.9792002356496	0	0	0
461	1	1	-93.57025598426827	-23.668261602838882	124.04723367399386	0	0	0
462	1	1	-94.50595854411095	-23.78242683499094	124.38104053322763	0	0	0
463	1	1	-95.44166110395363	-24.12859467112091	124.44907397157189	0	0	0