bb80nuc3bl20bn4d30tot200V2

201 atoms
200 bonds
208 angles

1 atom types
1 bond types
1 angle types

-1000 1000 xlo xhi
-1000 1000 ylo yhi
-1000 1000 zlo zhi

Masses

1 1

Atoms

1	1	1	0.0	0.0	0.0	0	0	0
2	1	1	0.0	0.0	1.0	0	0	0
3	1	1	0.0	-0.49999999999999994	1.8660254037844388	0	0	0
4	1	1	0.0	0.0	2.7320508075688776	0	0	0
5	1	1	0.0	-0.49999999999999994	3.5980762113533165	0	0	0
6	1	1	0.0	0.0	4.464101615137755	0	0	0
7	1	1	0.0	-0.49999999999999994	5.330127018922194	0	0	0
8	1	1	0.0	0.0	6.196152422706632	0	0	0
9	1	1	0.0	-0.49999999999999994	7.06217782649107	0	0	0
10	1	1	0.0	0.0	7.928203230275509	0	0	0
11	1	1	0.0	-0.49999999999999994	8.794228634059948	0	0	0
12	1	1	0.0	0.0	9.660254037844387	0	0	0
13	1	1	0.0	-0.49999999999999994	10.526279441628827	0	0	0
14	1	1	0.0	0.0	11.392304845413266	0	0	0
15	1	1	0.0	-0.49999999999999994	12.258330249197705	0	0	0
16	1	1	0.0	0.0	13.124355652982144	0	0	0
17	1	1	0.0	-0.49999999999999994	13.990381056766584	0	0	0
18	1	1	0.0	0.0	14.856406460551023	0	0	0
19	1	1	0.0	-0.49999999999999994	15.722431864335462	0	0	0
20	1	1	0.0	0.0	16.5884572681199	0	0	0
21	1	1	0.0	-0.49999999999999994	17.454482671904337	0	0	0
22	1	1	0.5696893215762286	-1.317303532021455	17.36805921775404	0	0	0
23	1	1	1.139378643152458	-1.9818974262796356	16.884562544966357	0	0	0
24	1	1	1.7090679647286873	-2.7329147746881137	17.21836940420013	0	0	0
25	1	1	2.2787572863049164	-3.397508668946294	16.734872731412445	0	0	0
26	1	1	2.8484466078811455	-4.148526017354772	17.068679590646216	0	0	0
27	1	1	3.4181359294573745	-4.813119911612953	16.585182917858532	0	0	0
28	1	1	3.9878252510336036	-5.564137260021431	16.918989777092303	0	0	0
29	1	1	4.557514572609833	-6.228731154279611	16.43549310430462	0	0	0
30	1	1	5.127203894186062	-6.979748502688089	16.76929996353839	0	0	0
31	1	1	5.696893215762291	-7.64434239694627	16.285803290750707	0	0	0
32	1	1	6.26658253733852	-8.395359745354748	16.619610149984478	0	0	0
33	1	1	6.836271858914749	-9.059953639612928	16.136113477196794	0	0	0
34	1	1	7.405961180490978	-9.810970988021406	16.469920336430565	0	0	0
35	1	1	7.975650502067207	-10.475564882279587	15.98642366364288	0	0	0
36	1	1	8.545339823643436	-11.226582230688065	16.32023052287665	0	0	0
37	1	1	9.115029145219665	-11.891176124946245	15.836733850088963	0	0	0
38	1	1	9.684718466795895	-12.642193473354723	16.170540709322733	0	0	0
39	1	1	10.254407788372124	-13.306787367612904	15.687044036535047	0	0	0
40	1	1	10.824097109948353	-14.057804716021382	16.020850895768817	0	0	0
41	1	1	11.393786431524582	-14.722398610279562	15.537354222981131	0	0	0
42	1	1	-0.9352447631926837	-0.7689703695967742	17.68463951668553	0	0	0
43	1	1	-1.8704895263853683	-1.1169839649234663	17.749476006322524	0	0	0
44	1	1	-2.805734289578053	-1.234840715468967	18.083282865556296	0	0	0
45	1	1	-3.7409790527707374	-1.5828543107956592	18.14811935519329	0	0	0
46	1	1	-4.676223815963422	-1.7007110613411598	18.481926214427062	0	0	0
47	1	1	-5.611468579156107	-2.048724656667852	18.546762704064058	0	0	0
48	1	1	-6.546713342348792	-2.1665814072133527	18.88056956329783	0	0	0
49	1	1	-7.481958105541477	-2.514595002540045	18.945406052934825	0	0	0
50	1	1	-8.417202868734162	-2.6324517530855456	19.279212912168596	0	0	0
51	1	1	-9.352447631926847	-2.980465348412238	19.34404940180559	0	0	0
52	1	1	-10.287692395119532	-3.0983220989577385	19.677856261039363	0	0	0
53	1	1	-11.222937158312217	-3.4463356942844308	19.74269275067636	0	0	0
54	1	1	-12.158181921504902	-3.5641924448299314	20.07649960991013	0	0	0
55	1	1	-13.093426684697587	-3.9122060401566237	20.141336099547125	0	0	0
56	1	1	-14.028671447890272	-4.030062790702124	20.475142958780896	0	0	0
57	1	1	-14.963916211082957	-4.378076386028816	20.539979448417892	0	0	0
58	1	1	-15.899160974275642	-4.495933136574316	20.873786307651663	0	0	0
59	1	1	-16.834405737468327	-4.843946731901008	20.93862279728866	0	0	0
60	1	1	-17.76965050066101	-4.961803482446508	21.27242965652243	0	0	0
61	1	1	-18.704895263853697	-5.3098170777732	21.337266146159426	0	0	0
62	1	1	0.365555441616451	0.08556361276757213	18.17800494143527	0	0	0
63	1	1	0.7311108832329023	0.23091544219061846	19.097375413436612	0	0	0
64	1	1	1.0966663248493538	1.099789541144596	19.431182272670384	0	0	0
65	1	1	1.462221766465805	1.2451413705676422	20.350552744671727	0	0	0
66	1	1	1.8277772080822565	2.1140154695216196	20.6843596039055	0	0	0
67	1	1	2.193332649698708	2.259367298944666	21.603730075906842	0	0	0
68	1	1	2.5588880913151595	3.1282413978986434	21.937536935140614	0	0	0
69	1	1	2.924443532931611	3.27359322732169	22.856907407141957	0	0	0
70	1	1	3.2899989745480624	4.142467326275668	23.19071426637573	0	0	0
71	1	1	3.655554416164514	4.287819155698714	24.110084738377072	0	0	0
72	1	1	4.021109857780965	5.156693254652692	24.443891597610843	0	0	0
73	1	1	4.386665299397417	5.302045084075738	25.363262069612187	0	0	0
74	1	1	4.752220741013868	6.170919183029715	25.697068928845958	0	0	0
75	1	1	5.11777618263032	6.316271012452762	26.6164394008473	0	0	0
76	1	1	5.483331624246771	7.185145111406739	26.950246260081073	0	0	0
77	1	1	5.848887065863223	7.330496940829786	27.869616732082417	0	0	0
78	1	1	6.214442507479674	8.199371039783763	28.203423591316188	0	0	0
79	1	1	6.579997949096126	8.344722869206809	29.12279406331753	0	0	0
80	1	1	6.945553390712577	9.213596968160786	29.456600922551303	0	0	0
81	1	1	7.311108832329029	9.358948797583832	30.375971394552646	0	0	0
82	1	1	6.706587348475877	8.930037716039486	31.047230703380794	0	0	0
83	1	1	6.102065864622725	8.22296016904335	31.41410277658058	0	0	0
84	1	1	5.497544380769573	8.187141930875363	32.20988593132471	0	0	0
85	1	1	4.8930228969164204	7.480064383879227	32.5767580045245	0	0	0
86	1	1	4.288501413063268	7.444246145711238	33.372541159268636	0	0	0
87	1	1	3.6839799292101163	6.737168598715102	33.73941323246842	0	0	0
88	1	1	3.0794584453569644	6.701350360547114	34.53519638721256	0	0	0
89	1	1	2.4749369615038126	5.994272813550977	34.902068460412345	0	0	0
90	1	1	1.8704154776506607	5.958454575382989	35.69785161515648	0	0	0
91	1	1	1.2658939937975089	5.251377028386853	36.06472368835627	0	0	0
92	1	1	0.6613725099443569	5.215558790218864	36.8605068431004	0	0	0
93	1	1	0.05685102609120496	4.508481243222728	37.22737891630019	0	0	0
94	1	1	-0.547670457761947	4.47266300505474	38.023162071044325	0	0	0
95	1	1	-1.152191941615099	3.7655854580586032	38.39003414424411	0	0	0
96	1	1	-1.7567134254682508	3.729767219890615	39.18581729898825	0	0	0
97	1	1	-2.3612349093214027	3.0226896728944785	39.552689372188034	0	0	0
98	1	1	-2.9657563931745545	2.98687143472649	40.34847252693217	0	0	0
99	1	1	-3.5702778770277064	2.279793887730354	40.71534460013196	0	0	0
100	1	1	-4.174799360880859	2.2439756495623655	41.51112775487609	0	0	0
101	1	1	-4.779320844734011	1.5368981025662292	41.87799982807588	0	0	0
102	1	1	7.370411688506272	10.34000987528018	30.560368610037315	0	0	0
103	1	1	7.429714544683516	11.097435083487023	31.210591821882325	0	0	0
104	1	1	7.489017400860759	12.039257507178533	30.879753956030985	0	0	0
105	1	1	7.548320257038003	12.796682715385376	31.529977167875995	0	0	0
106	1	1	7.607623113215246	13.738505139076889	31.199139302024655	0	0	0
107	1	1	7.66692596939249	14.495930347283732	31.849362513869664	0	0	0
108	1	1	7.726228825569733	15.437752770975244	31.518524648018325	0	0	0
109	1	1	7.785531681746977	16.195177979182088	32.16874785986334	0	0	0
110	1	1	7.84483453792422	17.1370004028736	31.837909994011998	0	0	0
111	1	1	7.904137394101464	17.894425611080443	32.48813320585701	0	0	0
112	1	1	7.963440250278707	18.836248034771955	32.157295340005675	0	0	0
113	1	1	8.02274310645595	19.5936732429788	32.807518551850684	0	0	0
114	1	1	8.082045962633194	20.53549566667031	32.47668068599935	0	0	0
115	1	1	8.141348818810437	21.292920874877154	33.12690389784436	0	0	0
116	1	1	8.20065167498768	22.234743298568667	32.79606603199302	0	0	0
117	1	1	8.259954531164924	22.99216850677551	33.44628924383803	0	0	0
118	1	1	8.319257387342168	23.933990930467022	33.115451377986695	0	0	0
119	1	1	8.378560243519411	24.691416138673866	33.765674589831704	0	0	0
120	1	1	8.437863099696655	25.633238562365378	33.43483672398037	0	0	0
121	1	1	8.497165955873898	26.39066377057222	34.08505993582538	0	0	0
122	1	1	8.222402201530342	8.9523571144226	30.440991379432944	0	0	0
123	1	1	9.133695570731655	8.567728395397351	30.294004496512347	0	0	0
124	1	1	10.044988939932969	8.248119661252401	30.55360929675298	0	0	0
125	1	1	10.956282309134282	7.863490942227152	30.406622413832384	0	0	0
126	1	1	11.867575678335596	7.543882208082202	30.666227214073018	0	0	0
127	1	1	12.77886904753691	7.159253489056953	30.51924033115242	0	0	0
128	1	1	13.690162416738223	6.839644754912003	30.778845131393055	0	0	0
129	1	1	14.601455785939537	6.455016035886754	30.631858248472458	0	0	0
130	1	1	15.51274915514085	6.135407301741804	30.891463048713092	0	0	0
131	1	1	16.424042524342166	5.7507785827165545	30.744476165792495	0	0	0
132	1	1	17.33533589354348	5.431169848571605	31.00408096603313	0	0	0
133	1	1	18.246629262744793	5.046541129546355	30.857094083112532	0	0	0
134	1	1	19.157922631946107	4.7269323954014055	31.116698883353166	0	0	0
135	1	1	20.06921600114742	4.342303676376156	30.96971200043257	0	0	0
136	1	1	20.980509370348734	4.022694942231206	31.229316800673203	0	0	0
137	1	1	21.891802739550048	3.638066223205957	31.082329917752606	0	0	0
138	1	1	22.80309610875136	3.318457489061007	31.34193471799324	0	0	0
139	1	1	23.714389477952675	2.9338287700357575	31.194947835072643	0	0	0
140	1	1	24.62568284715399	2.614220035890807	31.454552635313277	0	0	0
141	1	1	25.536976216355303	2.229591316865558	31.30756575239268	0	0	0
142	1	1	25.460592745565698	1.3804967474844179	30.784876573589838	0	0	0
143	1	1	25.384209274776094	0.906503869586363	29.90766718177278	0	0	0
144	1	1	25.30782580398649	-0.09017818711453418	29.879552359336863	0	0	0
145	1	1	25.231442333196885	-0.5641710650125891	29.002342967519805	0	0	0
146	1	1	25.15505886240728	-1.5608531217134862	28.974228145083888	0	0	0
147	1	1	25.078675391617676	-2.0348459996115413	28.09701875326683	0	0	0
148	1	1	25.00229192082807	-3.0315280563124385	28.068903930830913	0	0	0
149	1	1	24.925908450038467	-3.5055209342104936	27.191694539013856	0	0	0
150	1	1	24.849524979248862	-4.502202990911391	27.16357971657794	0	0	0
151	1	1	24.773141508459258	-4.976195868809445	26.28637032476088	0	0	0
152	1	1	24.696758037669653	-5.972877925510343	26.258255502324964	0	0	0
153	1	1	24.62037456688005	-6.446870803408397	25.381046110507906	0	0	0
154	1	1	24.543991096090444	-7.443552860109294	25.35293128807199	0	0	0
155	1	1	24.46760762530084	-7.917545738007349	24.47572189625493	0	0	0
156	1	1	24.391224154511235	-8.914227794708246	24.447607073819015	0	0	0
157	1	1	24.31484068372163	-9.388220672606302	23.570397682001957	0	0	0
158	1	1	24.238457212932026	-10.3849027293072	23.54228285956604	0	0	0
159	1	1	24.16207374214242	-10.858895607205255	22.665073467748982	0	0	0
160	1	1	24.085690271352817	-11.855577663906153	22.636958645313065	0	0	0
161	1	1	24.009306800563213	-12.329570541804209	21.759749253496008	0	0	0
162	1	1	25.96544003366833	2.0393198816932636	32.19086385508	0	0	0
163	1	1	26.393903850981356	1.4328909338758709	32.86068673353567	0	0	0
164	1	1	26.822367668294383	1.7097600887458015	33.72078104716364	0	0	0
165	1	1	27.25083148560741	1.1033311409284088	34.39060392561931	0	0	0
166	1	1	27.679295302920437	1.3802002957983395	35.25069823924728	0	0	0
167	1	1	28.107759120233464	0.7737713479809468	35.92052111770295	0	0	0
168	1	1	28.53622293754649	1.0506405028508776	36.780615431330915	0	0	0
169	1	1	28.964686754859517	0.444211555033485	37.450438309786584	0	0	0
170	1	1	29.393150572172544	0.7210807099034158	38.31053262341455	0	0	0
171	1	1	29.82161438948557	0.11465176208602312	38.98035550187022	0	0	0
172	1	1	30.250078206798598	0.3915209169559539	39.84044981549819	0	0	0
173	1	1	30.678542024111625	-0.21490803086143873	40.51027269395386	0	0	0
174	1	1	31.10700584142465	0.061961124008492074	41.37036700758183	0	0	0
175	1	1	31.53546965873768	-0.5444678238089006	42.040189886037496	0	0	0
176	1	1	31.963933476050705	-0.2675986689389698	42.900284199665464	0	0	0
177	1	1	32.39239729336373	-0.8740276167563624	43.57010707812113	0	0	0
178	1	1	32.82086111067675	-0.5971584618864316	44.4302013917491	0	0	0
179	1	1	33.249324927989775	-1.2035874097038244	45.10002427020477	0	0	0
180	1	1	33.6777887453028	-0.9267182548338936	45.96011858383274	0	0	0
181	1	1	34.10625256261582	-1.5331472026512862	46.62994146228841	0	0	0
182	1	1	26.097483802072837	2.88378220741221	30.799761139299342	0	0	0
183	1	1	26.657991387790375	3.7042304440966465	30.687084889474907	0	0	0
184	1	1	27.218498973507913	4.016874067687743	29.92021774910382	0	0	0
185	1	1	27.77900655922545	4.837322304372179	29.807541499279385	0	0	0
186	1	1	28.33951414494299	5.149965927963276	29.040674358908298	0	0	0
187	1	1	28.900021730660526	5.970414164647712	28.927998109083862	0	0	0
188	1	1	29.460529316378064	6.283057788238809	28.161130968712776	0	0	0
189	1	1	30.021036902095602	7.103506024923245	28.04845471888834	0	0	0
190	1	1	30.58154448781314	7.416149648514342	27.281587578517254	0	0	0
191	1	1	31.142052073530678	8.236597885198778	27.16891132869282	0	0	0
192	1	1	31.702559659248216	8.549241508789875	26.40204418832173	0	0	0
193	1	1	32.263067244965754	9.36968974547431	26.289367938497296	0	0	0
194	1	1	32.82357483068329	9.682333369065407	25.52250079812621	0	0	0
195	1	1	33.38408241640083	10.502781605749844	25.409824548301774	0	0	0
196	1	1	33.94459000211837	10.81542522934094	24.642957407930687	0	0	0
197	1	1	34.505097587835905	11.635873466025377	24.530281158106252	0	0	0
198	1	1	35.06560517355344	11.948517089616473	23.763414017735165	0	0	0
199	1	1	35.62611275927098	12.76896532630091	23.65073776791073	0	0	0
200	1	1	36.18662034498852	13.081608949892006	22.883870627539643	0	0	0
201	1	1	36.74712793070606	13.902057186576442	22.771194377715208	0	0	0

Bonds

1	1	1	2
2	1	2	3
3	1	3	4
4	1	4	5
5	1	5	6
6	1	6	7
7	1	7	8
8	1	8	9
9	1	9	10
10	1	10	11
11	1	11	12
12	1	12	13
13	1	13	14
14	1	14	15
15	1	15	16
16	1	16	17
17	1	17	18
18	1	18	19
19	1	19	20
20	1	20	21
21	1	21	22
22	1	21	42
23	1	21	62
24	1	22	23
25	1	23	24
26	1	24	25
27	1	25	26
28	1	26	27
29	1	27	28
30	1	28	29
31	1	29	30
32	1	30	31
33	1	31	32
34	1	32	33
35	1	33	34
36	1	34	35
37	1	35	36
38	1	36	37
39	1	37	38
40	1	38	39
41	1	39	40
42	1	40	41
43	1	42	43
44	1	43	44
45	1	44	45
46	1	45	46
47	1	46	47
48	1	47	48
49	1	48	49
50	1	49	50
51	1	50	51
52	1	51	52
53	1	52	53
54	1	53	54
55	1	54	55
56	1	55	56
57	1	56	57
58	1	57	58
59	1	58	59
60	1	59	60
61	1	60	61
62	1	62	63
63	1	63	64
64	1	64	65
65	1	65	66
66	1	66	67
67	1	67	68
68	1	68	69
69	1	69	70
70	1	70	71
71	1	71	72
72	1	72	73
73	1	73	74
74	1	74	75
75	1	75	76
76	1	76	77
77	1	77	78
78	1	78	79
79	1	79	80
80	1	80	81
81	1	81	82
82	1	81	102
83	1	81	122
84	1	82	83
85	1	83	84
86	1	84	85
87	1	85	86
88	1	86	87
89	1	87	88
90	1	88	89
91	1	89	90
92	1	90	91
93	1	91	92
94	1	92	93
95	1	93	94
96	1	94	95
97	1	95	96
98	1	96	97
99	1	97	98
100	1	98	99
101	1	99	100
102	1	100	101
103	1	102	103
104	1	103	104
105	1	104	105
106	1	105	106
107	1	106	107
108	1	107	108
109	1	108	109
110	1	109	110
111	1	110	111
112	1	111	112
113	1	112	113
114	1	113	114
115	1	114	115
116	1	115	116
117	1	116	117
118	1	117	118
119	1	118	119
120	1	119	120
121	1	120	121
122	1	122	123
123	1	123	124
124	1	124	125
125	1	125	126
126	1	126	127
127	1	127	128
128	1	128	129
129	1	129	130
130	1	130	131
131	1	131	132
132	1	132	133
133	1	133	134
134	1	134	135
135	1	135	136
136	1	136	137
137	1	137	138
138	1	138	139
139	1	139	140
140	1	140	141
141	1	141	142
142	1	141	162
143	1	141	182
144	1	142	143
145	1	143	144
146	1	144	145
147	1	145	146
148	1	146	147
149	1	147	148
150	1	148	149
151	1	149	150
152	1	150	151
153	1	151	152
154	1	152	153
155	1	153	154
156	1	154	155
157	1	155	156
158	1	156	157
159	1	157	158
160	1	158	159
161	1	159	160
162	1	160	161
163	1	162	163
164	1	163	164
165	1	164	165
166	1	165	166
167	1	166	167
168	1	167	168
169	1	168	169
170	1	169	170
171	1	170	171
172	1	171	172
173	1	172	173
174	1	173	174
175	1	174	175
176	1	175	176
177	1	176	177
178	1	177	178
179	1	178	179
180	1	179	180
181	1	180	181
182	1	182	183
183	1	183	184
184	1	184	185
185	1	185	186
186	1	186	187
187	1	187	188
188	1	188	189
189	1	189	190
190	1	190	191
191	1	191	192
192	1	192	193
193	1	193	194
194	1	194	195
195	1	195	196
196	1	196	197
197	1	197	198
198	1	198	199
199	1	199	200
200	1	200	201

Angles

1	1	1	2	3
2	1	2	3	4
3	1	3	4	5
4	1	4	5	6
5	1	5	6	7
6	1	6	7	8
7	1	7	8	9
8	1	8	9	10
9	1	9	10	11
10	1	10	11	12
11	1	11	12	13
12	1	12	13	14
13	1	13	14	15
14	1	14	15	16
15	1	15	16	17
16	1	16	17	18
17	1	17	18	19
18	1	18	19	20
19	1	19	20	21
20	1	20	21	22
21	1	20	21	42
22	1	20	21	62
23	1	21	22	23
24	1	21	42	43
25	1	21	62	63
26	1	22	21	42
27	1	22	21	62
28	1	22	23	24
29	1	23	24	25
30	1	24	25	26
31	1	25	26	27
32	1	26	27	28
33	1	27	28	29
34	1	28	29	30
35	1	29	30	31
36	1	30	31	32
37	1	31	32	33
38	1	32	33	34
39	1	33	34	35
40	1	34	35	36
41	1	35	36	37
42	1	36	37	38
43	1	37	38	39
44	1	38	39	40
45	1	39	40	41
46	1	42	21	62
47	1	42	43	44
48	1	43	44	45
49	1	44	45	46
50	1	45	46	47
51	1	46	47	48
52	1	47	48	49
53	1	48	49	50
54	1	49	50	51
55	1	50	51	52
56	1	51	52	53
57	1	52	53	54
58	1	53	54	55
59	1	54	55	56
60	1	55	56	57
61	1	56	57	58
62	1	57	58	59
63	1	58	59	60
64	1	59	60	61
65	1	62	63	64
66	1	63	64	65
67	1	64	65	66
68	1	65	66	67
69	1	66	67	68
70	1	67	68	69
71	1	68	69	70
72	1	69	70	71
73	1	70	71	72
74	1	71	72	73
75	1	72	73	74
76	1	73	74	75
77	1	74	75	76
78	1	75	76	77
79	1	76	77	78
80	1	77	78	79
81	1	78	79	80
82	1	79	80	81
83	1	80	81	82
84	1	80	81	102
85	1	80	81	122
86	1	81	82	83
87	1	81	102	103
88	1	81	122	123
89	1	82	81	102
90	1	82	81	122
91	1	82	83	84
92	1	83	84	85
93	1	84	85	86
94	1	85	86	87
95	1	86	87	88
96	1	87	88	89
97	1	88	89	90
98	1	89	90	91
99	1	90	91	92
100	1	91	92	93
101	1	92	93	94
102	1	93	94	95
103	1	94	95	96
104	1	95	96	97
105	1	96	97	98
106	1	97	98	99
107	1	98	99	100
108	1	99	100	101
109	1	102	81	122
110	1	102	103	104
111	1	103	104	105
112	1	104	105	106
113	1	105	106	107
114	1	106	107	108
115	1	107	108	109
116	1	108	109	110
117	1	109	110	111
118	1	110	111	112
119	1	111	112	113
120	1	112	113	114
121	1	113	114	115
122	1	114	115	116
123	1	115	116	117
124	1	116	117	118
125	1	117	118	119
126	1	118	119	120
127	1	119	120	121
128	1	122	123	124
129	1	123	124	125
130	1	124	125	126
131	1	125	126	127
132	1	126	127	128
133	1	127	128	129
134	1	128	129	130
135	1	129	130	131
136	1	130	131	132
137	1	131	132	133
138	1	132	133	134
139	1	133	134	135
140	1	134	135	136
141	1	135	136	137
142	1	136	137	138
143	1	137	138	139
144	1	138	139	140
145	1	139	140	141
146	1	140	141	142
147	1	140	141	162
148	1	140	141	182
149	1	141	142	143
150	1	141	162	163
151	1	141	182	183
152	1	142	141	162
153	1	142	141	182
154	1	142	143	144
155	1	143	144	145
156	1	144	145	146
157	1	145	146	147
158	1	146	147	148
159	1	147	148	149
160	1	148	149	150
161	1	149	150	151
162	1	150	151	152
163	1	151	152	153
164	1	152	153	154
165	1	153	154	155
166	1	154	155	156
167	1	155	156	157
168	1	156	157	158
169	1	157	158	159
170	1	158	159	160
171	1	159	160	161
172	1	162	141	182
173	1	162	163	164
174	1	163	164	165
175	1	164	165	166
176	1	165	166	167
177	1	166	167	168
178	1	167	168	169
179	1	168	169	170
180	1	169	170	171
181	1	170	171	172
182	1	171	172	173
183	1	172	173	174
184	1	173	174	175
185	1	174	175	176
186	1	175	176	177
187	1	176	177	178
188	1	177	178	179
189	1	178	179	180
190	1	179	180	181
191	1	182	183	184
192	1	183	184	185
193	1	184	185	186
194	1	185	186	187
195	1	186	187	188
196	1	187	188	189
197	1	188	189	190
198	1	189	190	191
199	1	190	191	192
200	1	191	192	193
201	1	192	193	194
202	1	193	194	195
203	1	194	195	196
204	1	195	196	197
205	1	196	197	198
206	1	197	198	199
207	1	198	199	200
208	1	199	200	201
