bb109nuc7bl13bn4d30tot300V2

293 atoms
292 bonds
312 angles

1 atom types
1 bond types
1 angle types

-1000 1000 xlo xhi
-1000 1000 ylo yhi
-1000 1000 zlo zhi

Masses

1 1

Atoms

1	1	1	0.0	0.0	0.0	0	0	0
2	1	1	0.0	0.0	1.0	0	0	0
3	1	1	0.0	-0.49999999999999994	1.8660254037844388	0	0	0
4	1	1	0.0	0.0	2.7320508075688776	0	0	0
5	1	1	0.0	-0.49999999999999994	3.5980762113533165	0	0	0
6	1	1	0.0	0.0	4.464101615137755	0	0	0
7	1	1	0.0	-0.49999999999999994	5.330127018922194	0	0	0
8	1	1	0.0	0.0	6.196152422706632	0	0	0
9	1	1	0.0	-0.49999999999999994	7.06217782649107	0	0	0
10	1	1	0.0	0.0	7.928203230275509	0	0	0
11	1	1	0.0	-0.49999999999999994	8.794228634059948	0	0	0
12	1	1	0.0	0.0	9.660254037844387	0	0	0
13	1	1	0.0	-0.49999999999999994	10.526279441628827	0	0	0
14	1	1	0.0	0.0	11.392304845413266	0	0	0
15	1	1	0.3013512845733945	-0.6066082302893104	12.127977230535365	0	0	0
16	1	1	0.6027025691467889	-1.499782560425623	12.461784089769136	0	0	0
17	1	1	0.9040538537201832	-1.6572845054398377	13.402199179292216	0	0	0
18	1	1	1.2054051382935778	-2.5504588355761504	13.736006038525987	0	0	0
19	1	1	1.506756422866972	-2.707960780590365	14.676421128049068	0	0	0
20	1	1	1.8081077074403664	-3.601135110726678	15.010227987282839	0	0	0
21	1	1	2.109458992013761	-3.7586370557408926	15.95064307680592	0	0	0
22	1	1	2.4108102765871555	-4.651811385877205	16.28444993603969	0	0	0
23	1	1	2.71216156116055	-4.8093133308914195	17.22486502556277	0	0	0
24	1	1	3.0135128457339446	-5.702487661027732	17.558671884796542	0	0	0
25	1	1	3.314864130307339	-5.859989606041946	18.499086974319624	0	0	0
26	1	1	3.6162154148807337	-6.753163936178259	18.832893833553396	0	0	0
27	1	1	3.9175666994541283	-6.9106658811924735	19.773308923076478	0	0	0
28	1	1	-0.9241873021928931	0.32764579613993833	11.588585416884946	0	0	0
29	1	1	-1.8483746043857856	0.5132550933044621	11.922392276118718	0	0	0
30	1	1	-2.772561906578678	0.895144961940666	11.92855333921255	0	0	0
31	1	1	-3.6967492087715703	1.0807542591051897	12.262360198446322	0	0	0
32	1	1	-4.620936510964463	1.4626441277413935	12.268521261540155	0	0	0
33	1	1	-5.545123813157356	1.6482534249059173	12.602328120773926	0	0	0
34	1	1	-6.469311115350249	2.030143293542121	12.608489183867759	0	0	0
35	1	1	-7.3934984175431415	2.2157525907066447	12.94229604310153	0	0	0
36	1	1	-8.317685719736033	2.5976424593428487	12.948457106195363	0	0	0
37	1	1	-9.241873021928926	2.783251756507372	13.282263965429134	0	0	0
38	1	1	-10.166060324121819	3.165141625143576	13.288425028522967	0	0	0
39	1	1	-11.090247626314712	3.3507509223081	13.622231887756739	0	0	0
40	1	1	-12.014434928507605	3.732640790944304	13.628392950850571	0	0	0
41	1	1	0.6228360176194999	0.779672723000029	11.327607548981314	0	0	0
42	1	1	1.2456720352389992	1.487237755971817	11.661414408215085	0	0	0
43	1	1	1.8685080528584985	2.1301054925116536	11.21554854444883	0	0	0
44	1	1	2.491344070477998	2.837670525483442	11.5493554036826	0	0	0
45	1	1	3.1141800880974975	3.4805382620232783	11.103489539916344	0	0	0
46	1	1	3.7370161057169966	4.1881032949950665	11.437296399150116	0	0	0
47	1	1	4.359852123336496	4.830971031534903	10.99143053538386	0	0	0
48	1	1	4.982688140955995	5.53853606450669	11.32523739461763	0	0	0
49	1	1	5.605524158575494	6.181403801046526	10.879371530851374	0	0	0
50	1	1	6.228360176194993	6.888968834018314	11.213178390085146	0	0	0
51	1	1	6.851196193814492	7.53183657055815	10.76731252631889	0	0	0
52	1	1	7.474032211433991	8.239401603529938	11.10111938555266	0	0	0
53	1	1	8.096868229053491	8.882269340069774	10.655253521786404	0	0	0
54	1	1	8.719704246672991	9.589834373041562	10.989060381020176	0	0	0
55	1	1	8.216732658897111	10.23081593075429	11.568855365960866	0	0	0
56	1	1	7.7137610711212306	10.496024750620489	12.391463330762683	0	0	0
57	1	1	7.21078948334535	11.341028555427377	12.573089737851772	0	0	0
58	1	1	6.707817895569469	11.606237375293576	13.395697702653589	0	0	0
59	1	1	6.204846307793588	12.451241180100464	13.577324109742678	0	0	0
60	1	1	5.701874720017707	12.716449999966663	14.399932074544495	0	0	0
61	1	1	5.198903132241826	13.561453804773551	14.581558481633584	0	0	0
62	1	1	4.695931544465945	13.82666262463975	15.4041664464354	0	0	0
63	1	1	4.192959956690064	14.671666429446638	15.58579285352449	0	0	0
64	1	1	3.6899883689141832	14.936875249312838	16.408400818326307	0	0	0
65	1	1	3.1870167811383023	15.781879054119726	16.590027225415398	0	0	0
66	1	1	2.6840451933624214	16.047087873985923	17.412635190217216	0	0	0
67	1	1	2.1810736055865405	16.892091678792813	17.594261597306307	0	0	0
68	1	1	9.11306817428249	10.081767006830773	10.21235766809274	0	0	0
69	1	1	9.50643210189199	10.896144521106535	9.785679704403893	0	0	0
70	1	1	9.89979602950149	10.933819322454863	8.867069106925836	0	0	0
71	1	1	10.293159957110989	11.748196836730624	8.44039114323699	0	0	0
72	1	1	10.686523884720488	11.785871638078952	7.521780545758933	0	0	0
73	1	1	11.079887812329988	12.600249152354714	7.095102582070087	0	0	0
74	1	1	11.473251739939487	12.63792395370304	6.17649198459203	0	0	0
75	1	1	11.866615667548986	13.452301467978803	5.749814020903184	0	0	0
76	1	1	12.259979595158486	13.48997626932713	4.831203423425126	0	0	0
77	1	1	12.653343522767985	14.304353783602892	4.404525459736281	0	0	0
78	1	1	13.046707450377484	14.342028584951219	3.4859148622582237	0	0	0
79	1	1	13.440071377986984	15.156406099226981	3.0592368985693783	0	0	0
80	1	1	13.833435305596483	15.194080900575308	2.1406263010913213	0	0	0
81	1	1	9.453032711417078	9.165490365619478	11.520249166821465	0	0	0
82	1	1	10.186361176161165	8.532403282347618	11.768100145819751	0	0	0
83	1	1	10.919689640905252	8.430504984877047	12.44029513224012	0	0	0
84	1	1	11.65301810564934	7.797417901605185	12.688146111238407	0	0	0
85	1	1	12.386346570393426	7.6955196041346134	13.360341097658775	0	0	0
86	1	1	13.119675035137513	7.062432520862752	13.608192076657062	0	0	0
87	1	1	13.8530034998816	6.96053422339218	14.28038706307743	0	0	0
88	1	1	14.586331964625687	6.327447140120319	14.528238042075717	0	0	0
89	1	1	15.319660429369774	6.225548842649747	15.200433028496086	0	0	0
90	1	1	16.05298889411386	5.592461759377886	15.448284007494372	0	0	0
91	1	1	16.786317358857946	5.490563461907314	16.12047899391474	0	0	0
92	1	1	17.519645823602033	4.857476378635453	16.368329972913028	0	0	0
93	1	1	18.25297428834612	4.755578081164881	17.040524959333396	0	0	0
94	1	1	18.986302753090207	4.12249099789302	17.288375938331683	0	0	0
95	1	1	19.425411415355825	3.7788681544149996	16.458251294580286	0	0	0
96	1	1	19.864520077621442	3.8963443645180877	15.567530843045061	0	0	0
97	1	1	20.30362873988706	3.183695930869781	15.020433234987856	0	0	0
98	1	1	20.742737402152677	3.301172140972869	14.12971278345263	0	0	0
99	1	1	21.181846064418295	2.5885237073245624	13.582615175395425	0	0	0
100	1	1	21.620954726683912	2.7059999174276506	12.6918947238602	0	0	0
101	1	1	22.06006338894953	1.9933514837793438	12.144797115802994	0	0	0
102	1	1	22.499172051215147	2.110827693882432	11.25407666426777	0	0	0
103	1	1	22.938280713480765	1.3981792602341252	10.706979056210564	0	0	0
104	1	1	23.377389375746382	1.5156554703372132	9.816258604675339	0	0	0
105	1	1	23.816498038012	0.8030070366889065	9.269160996618133	0	0	0
106	1	1	24.255606700277617	0.9204832467919944	8.378440545082908	0	0	0
107	1	1	24.694715362543235	0.2078348131436878	7.8313429370257035	0	0	0
108	1	1	18.605044499411196	3.35586016216111	17.805018276614778	0	0	0
109	1	1	18.223786245732185	2.4336172139512344	17.86912824837258	0	0	0
110	1	1	17.842527992053174	2.028016604024454	18.699869055862287	0	0	0
111	1	1	17.461269738374163	1.1057736558145783	18.76397902762009	0	0	0
112	1	1	17.080011484695152	0.7001730458877977	19.594719835109796	0	0	0
113	1	1	16.69875323101614	-0.22206990232207813	19.658829806867598	0	0	0
114	1	1	16.31749497733713	-0.6276705122488586	20.489570614357305	0	0	0
115	1	1	15.936236723658117	-1.5499134604587343	20.553680586115107	0	0	0
116	1	1	15.554978469979105	-1.955514070385515	21.384421393604814	0	0	0
117	1	1	15.173720216300092	-2.877757018595391	21.448531365362616	0	0	0
118	1	1	14.79246196262108	-3.2833576285221713	22.279272172852323	0	0	0
119	1	1	14.411203708942066	-4.2056005767320475	22.343382144610125	0	0	0
120	1	1	14.029945455263054	-4.611201186658828	23.174122952099832	0	0	0
121	1	1	19.662822559312442	4.5987582444376045	17.850061314372283	0	0	0
122	1	1	20.339342365534677	4.730375090915382	18.574628742229947	0	0	0
123	1	1	21.01586217175691	5.423677313433759	18.822928923543028	0	0	0
124	1	1	21.692381977979146	5.555294159911536	19.547496351400692	0	0	0
125	1	1	22.36890178420138	6.248596382429913	19.795796532713773	0	0	0
126	1	1	23.045421590423615	6.3802132289076905	20.520363960571437	0	0	0
127	1	1	23.72194139664585	7.073515451426067	20.768664141884518	0	0	0
128	1	1	24.398461202868084	7.205132297903845	21.493231569742182	0	0	0
129	1	1	25.07498100909032	7.898434520422221	21.741531751055263	0	0	0
130	1	1	25.751500815312554	8.030051366899999	22.466099178912927	0	0	0
131	1	1	26.428020621534788	8.723353589418375	22.714399360226007	0	0	0
132	1	1	27.104540427757023	8.854970435896153	23.438966788083672	0	0	0
133	1	1	27.781060233979257	9.548272658414529	23.687266969396752	0	0	0
134	1	1	28.457580040201492	9.679889504892307	24.411834397254417	0	0	0
135	1	1	27.989277754306435	9.826116381796574	25.28321873811457	0	0	0
136	1	1	27.52097546841138	9.51706040148165	26.110973152211557	0	0	0
137	1	1	27.052673182516322	10.079388762026884	26.792500689404278	0	0	0
138	1	1	26.584370896621266	9.77033278171196	27.620255103501265	0	0	0
139	1	1	26.11606861072621	10.332661142257194	28.301782640693986	0	0	0
140	1	1	25.647766324831153	10.023605161942271	29.129537054790973	0	0	0
141	1	1	25.179464038936096	10.585933522487505	29.811064591983694	0	0	0
142	1	1	24.71116175304104	10.276877542172581	30.63881900608068	0	0	0
143	1	1	24.242859467145983	10.839205902717815	31.320346543273402	0	0	0
144	1	1	23.774557181250927	10.530149922402892	32.14810095737039	0	0	0
145	1	1	23.30625489535587	11.092478282948125	32.82962849456311	0	0	0
146	1	1	22.837952609460814	10.783422302633202	33.6573829086601	0	0	0
147	1	1	22.369650323565757	11.345750663178436	34.33891044585282	0	0	0
148	1	1	29.022904603843884	10.477064322855847	24.199889953242952	0	0	0
149	1	1	29.58822916748628	11.273410188475243	24.414928089519826	0	0	0
150	1	1	30.153553731128675	11.857811610083173	23.832791407833156	0	0	0
151	1	1	30.71887829477107	12.654157475702569	24.04782954411003	0	0	0
152	1	1	31.284202858413465	13.238558897310499	23.46569286242336	0	0	0
153	1	1	31.84952742205586	14.034904762929894	23.680730998700234	0	0	0
154	1	1	32.414851985698256	14.619306184537825	23.098594317013564	0	0	0
155	1	1	32.98017654934065	15.41565205015722	23.313632453290438	0	0	0
156	1	1	33.54550111298304	16.000053471765153	22.731495771603768	0	0	0
157	1	1	34.11082567662543	16.79639933738455	22.946533907880642	0	0	0
158	1	1	34.67615024026782	17.380800758992482	22.364397226193972	0	0	0
159	1	1	35.241474803910215	18.17714662461188	22.579435362470846	0	0	0
160	1	1	35.80679936755261	18.76154804621981	21.997298680784176	0	0	0
161	1	1	29.038038617627606	8.868291628459506	24.4779912325945	0	0	0
162	1	1	29.618497195053724	8.132348832141153	24.129485794416595	0	0	0
163	1	1	30.19895577247984	7.462562871162883	24.592578232671492	0	0	0
164	1	1	30.77941434990596	6.726620074844531	24.244072794493587	0	0	0
165	1	1	31.359872927332077	6.056834113866262	24.707165232748483	0	0	0
166	1	1	31.940331504758195	5.320891317547909	24.358659794570578	0	0	0
167	1	1	32.52079008218431	4.65110535656964	24.821752232825474	0	0	0
168	1	1	33.10124865961043	3.9151625602512876	24.47324679464757	0	0	0
169	1	1	33.68170723703654	3.245376599273018	24.936339232902466	0	0	0
170	1	1	34.262165814462655	2.509433802954666	24.58783379472456	0	0	0
171	1	1	34.84262439188877	1.8396478419763966	25.050926232979457	0	0	0
172	1	1	35.42308296931488	1.1037050456580442	24.70242079480155	0	0	0
173	1	1	36.003541546741	0.4339190846797749	25.165513233056448	0	0	0
174	1	1	36.58400012416711	-0.30202371163857744	24.817007794878542	0	0	0
175	1	1	37.38981082257182	0.09009923704329409	24.37326382426761	0	0	0
176	1	1	38.19562152097652	0.6515596573141227	24.185031747283304	0	0	0
177	1	1	39.00143221938123	0.7692761069740199	23.604676721617125	0	0	0
178	1	1	39.807242917785935	1.3307365272448486	23.41644464463282	0	0	0
179	1	1	40.61305361619064	1.4484529769047458	22.83608961896664	0	0	0
180	1	1	41.418864314595346	2.0099133971755743	22.647857541982333	0	0	0
181	1	1	42.22467501300005	2.1276298468354713	22.067502516316154	0	0	0
182	1	1	43.03048571140476	2.6890902671063	21.879270439331847	0	0	0
183	1	1	43.836296409809464	2.806806716766197	21.298915413665668	0	0	0
184	1	1	44.64210710821417	3.3682671370370256	21.11068333668136	0	0	0
185	1	1	45.447917806618875	3.4859835866969227	20.530328311015182	0	0	0
186	1	1	46.25372850502358	4.047444006967751	20.342096234030876	0	0	0
187	1	1	47.05953920342829	4.165160456627649	19.761741208364697	0	0	0
188	1	1	36.07056986983647	-0.8464404005639483	24.153682955333462	0	0	0
189	1	1	35.557139615505825	-0.9862566636449905	23.307018448863502	0	0	0
190	1	1	35.04370936117518	-1.7893977662711125	23.004770631318912	0	0	0
191	1	1	34.53027910684454	-1.9292140293521547	22.15810612484895	0	0	0
192	1	1	34.016848852513895	-2.732355131978277	21.85585830730436	0	0	0
193	1	1	33.50341859818325	-2.872171395059319	21.009193800834396	0	0	0
194	1	1	32.98998834385261	-3.6753124976854408	20.706945983289806	0	0	0
195	1	1	32.476558089521966	-3.8151287607664828	19.860281476819843	0	0	0
196	1	1	31.963127835191322	-4.618269863392605	19.558033659275253	0	0	0
197	1	1	31.44969758086068	-4.758086126473647	18.71136915280529	0	0	0
198	1	1	30.936267326530036	-5.561227229099769	18.4091213352607	0	0	0
199	1	1	30.422837072199393	-5.701043492180811	17.562456828790737	0	0	0
200	1	1	29.90940681786875	-6.504184594806933	17.260209011246147	0	0	0
201	1	1	36.87290284403079	-0.8867182316393224	25.575076087802383	0	0	0
202	1	1	37.16180556389447	-1.7721126858754375	25.93923522727756	0	0	0
203	1	1	37.450708283758146	-1.8994388471877115	26.888088886753483	0	0	0
204	1	1	37.739611003621825	-2.7848333014238267	27.25224802622866	0	0	0
205	1	1	38.0285137234855	-2.9121594627361005	28.201101685704582	0	0	0
206	1	1	38.31741644334918	-3.7975539169722157	28.56526082517976	0	0	0
207	1	1	38.60631916321286	-3.9248800782844895	29.514114484655682	0	0	0
208	1	1	38.89522188307654	-4.810274532520604	29.87827362413086	0	0	0
209	1	1	39.184124602940216	-4.937600693832878	30.82712728360678	0	0	0
210	1	1	39.473027322803894	-5.822995148068993	31.19128642308196	0	0	0
211	1	1	39.76193004266757	-5.950321309381267	32.140140082557885	0	0	0
212	1	1	40.05083276253125	-6.835715763617382	32.50429922203306	0	0	0
213	1	1	40.33973548239493	-6.963041924929656	33.453152881508984	0	0	0
214	1	1	40.62863820225861	-7.848436379165771	33.81731202098416	0	0	0
215	1	1	41.05255160746756	-7.71847227903784	34.71364162417826	0	0	0
216	1	1	41.476465012676506	-8.054084868344118	35.55486788077234	0	0	0
217	1	1	41.900378417885456	-7.493367854456295	36.26613003723849	0	0	0
218	1	1	42.324291823094406	-7.828980443762572	37.107356293832574	0	0	0
219	1	1	42.748205228303355	-7.268263429874749	37.81861845029872	0	0	0
220	1	1	43.172118633512305	-7.603876019181026	38.659844706892805	0	0	0
221	1	1	43.596032038721255	-7.043159005293203	39.37110686335895	0	0	0
222	1	1	44.019945443930204	-7.37877159459948	40.21233311995304	0	0	0
223	1	1	44.443858849139154	-6.8180545807116575	40.923595276419185	0	0	0
224	1	1	44.867772254348104	-7.153667170017934	41.76482153301327	0	0	0
225	1	1	45.291685659557054	-6.592950156130112	42.47608368947942	0	0	0
226	1	1	45.715599064766	-6.9285627454363885	43.3173099460735	0	0	0
227	1	1	46.13951246997495	-6.367845731548566	44.02857210253965	0	0	0
228	1	1	41.289607296335326	-8.266175502022204	33.19392299163689	0	0	0
229	1	1	41.950576390412046	-8.316253679896866	32.44518269435341	0	0	0
230	1	1	42.611545484488765	-8.9897208871188	32.11418151992637	0	0	0
231	1	1	43.272514578565485	-9.039799064993462	31.36544122264289	0	0	0
232	1	1	43.933483672642204	-9.713266272215396	31.034440048215842	0	0	0
233	1	1	44.59445276671892	-9.763344450090058	30.285699750932363	0	0	0
234	1	1	45.25542186079564	-10.436811657311992	29.954698576505315	0	0	0
235	1	1	45.91639095487236	-10.486889835186654	29.205958279221836	0	0	0
236	1	1	46.57736004894908	-11.160357042408588	28.874957104794788	0	0	0
237	1	1	47.2383291430258	-11.21043522028325	28.12621680751131	0	0	0
238	1	1	47.89929823710252	-11.883902427505184	27.79521563308426	0	0	0
239	1	1	48.56026733117924	-11.933980605379846	27.046475335800782	0	0	0
240	1	1	49.22123642525596	-12.60744781260178	26.715474161373734	0	0	0
241	1	1	39.833068831598304	-8.44731358229194	33.90904790296578	0	0	0
242	1	1	39.037499460938	-9.011824394937385	33.68905490563735	0	0	0
243	1	1	38.2419300902777	-9.484599325601211	34.06793911143509	0	0	0
244	1	1	37.446360719617395	-10.049110138246656	33.847946114106655	0	0	0
245	1	1	36.65079134895709	-10.521885068910482	34.226830319904394	0	0	0
246	1	1	35.85522197829679	-11.086395881555926	34.00683732257596	0	0	0
247	1	1	35.05965260763649	-11.559170812219753	34.3857215283737	0	0	0
248	1	1	34.264083236976184	-12.123681624865197	34.16572853104527	0	0	0
249	1	1	33.46851386631588	-12.596456555529024	34.54461273684301	0	0	0
250	1	1	32.67294449565558	-13.160967368174468	34.324619739514574	0	0	0
251	1	1	31.877375124995275	-13.633742298838294	34.70350394531231	0	0	0
252	1	1	31.081805754334972	-14.198253111483739	34.48351094798388	0	0	0
253	1	1	30.28623638367467	-14.671028042147565	34.86239515378162	0	0	0
254	1	1	29.490667013014367	-15.23553885479301	34.64240215645319	0	0	0
255	1	1	29.737235795119577	-16.20205349226141	34.71348866185666	0	0	0
256	1	1	29.983804577224788	-17.07462297414029	34.291794062668124	0	0	0
257	1	1	30.23037335933	-17.876105950615695	34.83661410094799	0	0	0
258	1	1	30.47694214143521	-18.748675432494572	34.41491950175946	0	0	0
259	1	1	30.72351092354042	-19.550158408969978	34.95973954003932	0	0	0
260	1	1	30.97007970564563	-20.422727890848854	34.53804494085079	0	0	0
261	1	1	31.21664848775084	-21.22421086732426	35.082864979130655	0	0	0
262	1	1	31.463217269856052	-22.096780349203136	34.66117037994212	0	0	0
263	1	1	31.709786051961263	-22.898263325678542	35.20599041822199	0	0	0
264	1	1	31.956354834066474	-23.77083280755742	34.78429581903345	0	0	0
265	1	1	32.20292361617169	-24.572315784032824	35.32911585731332	0	0	0
266	1	1	32.4494923982769	-25.4448852659117	34.907421258124785	0	0	0
267	1	1	32.69606118038212	-26.246368242387106	35.45224129640465	0	0	0
268	1	1	29.18792558241629	-15.036939155078862	33.71025099624746	0	0	0
269	1	1	28.885184151818216	-14.398871189839586	33.002284261199236	0	0	0
270	1	1	28.58244272122014	-14.692954384806034	32.09571782643687	0	0	0
271	1	1	28.279701290622064	-14.054886419566758	31.387751091388644	0	0	0
272	1	1	27.97695986002399	-14.348969614533207	30.481184656626272	0	0	0
273	1	1	27.674218429425913	-13.71090164929393	29.77321792157805	0	0	0
274	1	1	27.371476998827838	-14.00498484426038	28.866651486815677	0	0	0
275	1	1	27.068735568229762	-13.366916879021103	28.158684751767453	0	0	0
276	1	1	26.765994137631687	-13.661000073987552	27.25211831700508	0	0	0
277	1	1	26.46325270703361	-13.022932108748275	26.544151581956857	0	0	0
278	1	1	26.160511276435535	-13.317015303714724	25.637585147194486	0	0	0
279	1	1	25.85776984583746	-12.678947338475448	24.92961841214626	0	0	0
280	1	1	25.555028415239384	-12.973030533441896	24.02305197738389	0	0	0
281	1	1	28.750140122739122	-15.032936661156795	35.283161296780555	0	0	0
282	1	1	28.009613232463877	-15.177857584769063	35.93937608682924	0	0	0
283	1	1	27.269086342188633	-14.682019368053963	36.39298868324171	0	0	0
284	1	1	26.528559451913388	-14.826940291666231	37.0492034732904	0	0	0
285	1	1	25.788032561638143	-14.331102074951131	37.50281606970287	0	0	0
286	1	1	25.0475056713629	-14.4760229985634	38.15903085975155	0	0	0
287	1	1	24.306978781087654	-13.9801847818483	38.61264345616402	0	0	0
288	1	1	23.56645189081241	-14.125105705460568	39.26885824621271	0	0	0
289	1	1	22.825925000537165	-13.629267488745468	39.72247084262518	0	0	0
290	1	1	22.08539811026192	-13.774188412357736	40.378685632673864	0	0	0
291	1	1	21.344871219986675	-13.278350195642636	40.832298229086334	0	0	0
292	1	1	20.60434432971143	-13.423271119254904	41.48851301913502	0	0	0
293	1	1	19.863817439436186	-12.927432902539804	41.94212561554749	0	0	0

Bonds

1	1	1	2
2	1	2	3
3	1	3	4
4	1	4	5
5	1	5	6
6	1	6	7
7	1	7	8
8	1	8	9
9	1	9	10
10	1	10	11
11	1	11	12
12	1	12	13
13	1	13	14
14	1	14	15
15	1	14	28
16	1	14	41
17	1	15	16
18	1	16	17
19	1	17	18
20	1	18	19
21	1	19	20
22	1	20	21
23	1	21	22
24	1	22	23
25	1	23	24
26	1	24	25
27	1	25	26
28	1	26	27
29	1	28	29
30	1	29	30
31	1	30	31
32	1	31	32
33	1	32	33
34	1	33	34
35	1	34	35
36	1	35	36
37	1	36	37
38	1	37	38
39	1	38	39
40	1	39	40
41	1	41	42
42	1	42	43
43	1	43	44
44	1	44	45
45	1	45	46
46	1	46	47
47	1	47	48
48	1	48	49
49	1	49	50
50	1	50	51
51	1	51	52
52	1	52	53
53	1	53	54
54	1	54	55
55	1	54	68
56	1	54	81
57	1	55	56
58	1	56	57
59	1	57	58
60	1	58	59
61	1	59	60
62	1	60	61
63	1	61	62
64	1	62	63
65	1	63	64
66	1	64	65
67	1	65	66
68	1	66	67
69	1	68	69
70	1	69	70
71	1	70	71
72	1	71	72
73	1	72	73
74	1	73	74
75	1	74	75
76	1	75	76
77	1	76	77
78	1	77	78
79	1	78	79
80	1	79	80
81	1	81	82
82	1	82	83
83	1	83	84
84	1	84	85
85	1	85	86
86	1	86	87
87	1	87	88
88	1	88	89
89	1	89	90
90	1	90	91
91	1	91	92
92	1	92	93
93	1	93	94
94	1	94	95
95	1	94	108
96	1	94	121
97	1	95	96
98	1	96	97
99	1	97	98
100	1	98	99
101	1	99	100
102	1	100	101
103	1	101	102
104	1	102	103
105	1	103	104
106	1	104	105
107	1	105	106
108	1	106	107
109	1	108	109
110	1	109	110
111	1	110	111
112	1	111	112
113	1	112	113
114	1	113	114
115	1	114	115
116	1	115	116
117	1	116	117
118	1	117	118
119	1	118	119
120	1	119	120
121	1	121	122
122	1	122	123
123	1	123	124
124	1	124	125
125	1	125	126
126	1	126	127
127	1	127	128
128	1	128	129
129	1	129	130
130	1	130	131
131	1	131	132
132	1	132	133
133	1	133	134
134	1	134	135
135	1	134	148
136	1	134	161
137	1	135	136
138	1	136	137
139	1	137	138
140	1	138	139
141	1	139	140
142	1	140	141
143	1	141	142
144	1	142	143
145	1	143	144
146	1	144	145
147	1	145	146
148	1	146	147
149	1	148	149
150	1	149	150
151	1	150	151
152	1	151	152
153	1	152	153
154	1	153	154
155	1	154	155
156	1	155	156
157	1	156	157
158	1	157	158
159	1	158	159
160	1	159	160
161	1	161	162
162	1	162	163
163	1	163	164
164	1	164	165
165	1	165	166
166	1	166	167
167	1	167	168
168	1	168	169
169	1	169	170
170	1	170	171
171	1	171	172
172	1	172	173
173	1	173	174
174	1	174	175
175	1	174	188
176	1	174	201
177	1	175	176
178	1	176	177
179	1	177	178
180	1	178	179
181	1	179	180
182	1	180	181
183	1	181	182
184	1	182	183
185	1	183	184
186	1	184	185
187	1	185	186
188	1	186	187
189	1	188	189
190	1	189	190
191	1	190	191
192	1	191	192
193	1	192	193
194	1	193	194
195	1	194	195
196	1	195	196
197	1	196	197
198	1	197	198
199	1	198	199
200	1	199	200
201	1	201	202
202	1	202	203
203	1	203	204
204	1	204	205
205	1	205	206
206	1	206	207
207	1	207	208
208	1	208	209
209	1	209	210
210	1	210	211
211	1	211	212
212	1	212	213
213	1	213	214
214	1	214	215
215	1	214	228
216	1	214	241
217	1	215	216
218	1	216	217
219	1	217	218
220	1	218	219
221	1	219	220
222	1	220	221
223	1	221	222
224	1	222	223
225	1	223	224
226	1	224	225
227	1	225	226
228	1	226	227
229	1	228	229
230	1	229	230
231	1	230	231
232	1	231	232
233	1	232	233
234	1	233	234
235	1	234	235
236	1	235	236
237	1	236	237
238	1	237	238
239	1	238	239
240	1	239	240
241	1	241	242
242	1	242	243
243	1	243	244
244	1	244	245
245	1	245	246
246	1	246	247
247	1	247	248
248	1	248	249
249	1	249	250
250	1	250	251
251	1	251	252
252	1	252	253
253	1	253	254
254	1	254	255
255	1	254	268
256	1	254	281
257	1	255	256
258	1	256	257
259	1	257	258
260	1	258	259
261	1	259	260
262	1	260	261
263	1	261	262
264	1	262	263
265	1	263	264
266	1	264	265
267	1	265	266
268	1	266	267
269	1	268	269
270	1	269	270
271	1	270	271
272	1	271	272
273	1	272	273
274	1	273	274
275	1	274	275
276	1	275	276
277	1	276	277
278	1	277	278
279	1	278	279
280	1	279	280
281	1	281	282
282	1	282	283
283	1	283	284
284	1	284	285
285	1	285	286
286	1	286	287
287	1	287	288
288	1	288	289
289	1	289	290
290	1	290	291
291	1	291	292
292	1	292	293

Angles

1	1	1	2	3
2	1	2	3	4
3	1	3	4	5
4	1	4	5	6
5	1	5	6	7
6	1	6	7	8
7	1	7	8	9
8	1	8	9	10
9	1	9	10	11
10	1	10	11	12
11	1	11	12	13
12	1	12	13	14
13	1	13	14	15
14	1	13	14	29
15	1	13	14	43
16	1	14	15	16
17	1	14	28	29
18	1	14	41	42
19	1	15	14	29
20	1	15	14	43
21	1	15	16	17
22	1	16	17	18
23	1	17	18	19
24	1	18	19	20
25	1	19	20	21
26	1	20	21	22
27	1	21	22	23
28	1	22	23	24
29	1	23	24	25
30	1	24	25	26
31	1	25	26	27
32	1	28	29	30
33	1	29	14	43
34	1	29	30	31
35	1	30	31	32
36	1	31	32	33
37	1	32	33	34
38	1	33	34	35
39	1	34	35	36
40	1	35	36	37
41	1	36	37	38
42	1	37	38	39
43	1	38	39	40
44	1	41	42	43
45	1	42	43	44
46	1	43	44	45
47	1	44	45	46
48	1	45	46	47
49	1	46	47	48
50	1	47	48	49
51	1	48	49	50
52	1	49	50	51
53	1	50	51	52
54	1	51	52	53
55	1	52	53	54
56	1	53	54	55
57	1	53	54	69
58	1	53	54	83
59	1	54	55	56
60	1	54	68	69
61	1	54	81	82
62	1	55	54	69
63	1	55	54	83
64	1	55	56	57
65	1	56	57	58
66	1	57	58	59
67	1	58	59	60
68	1	59	60	61
69	1	60	61	62
70	1	61	62	63
71	1	62	63	64
72	1	63	64	65
73	1	64	65	66
74	1	65	66	67
75	1	68	69	70
76	1	69	54	83
77	1	69	70	71
78	1	70	71	72
79	1	71	72	73
80	1	72	73	74
81	1	73	74	75
82	1	74	75	76
83	1	75	76	77
84	1	76	77	78
85	1	77	78	79
86	1	78	79	80
87	1	81	82	83
88	1	82	83	84
89	1	83	84	85
90	1	84	85	86
91	1	85	86	87
92	1	86	87	88
93	1	87	88	89
94	1	88	89	90
95	1	89	90	91
96	1	90	91	92
97	1	91	92	93
98	1	92	93	94
99	1	93	94	95
100	1	93	94	109
101	1	93	94	123
102	1	94	95	96
103	1	94	108	109
104	1	94	121	122
105	1	95	94	109
106	1	95	94	123
107	1	95	96	97
108	1	96	97	98
109	1	97	98	99
110	1	98	99	100
111	1	99	100	101
112	1	100	101	102
113	1	101	102	103
114	1	102	103	104
115	1	103	104	105
116	1	104	105	106
117	1	105	106	107
118	1	108	109	110
119	1	109	94	123
120	1	109	110	111
121	1	110	111	112
122	1	111	112	113
123	1	112	113	114
124	1	113	114	115
125	1	114	115	116
126	1	115	116	117
127	1	116	117	118
128	1	117	118	119
129	1	118	119	120
130	1	121	122	123
131	1	122	123	124
132	1	123	124	125
133	1	124	125	126
134	1	125	126	127
135	1	126	127	128
136	1	127	128	129
137	1	128	129	130
138	1	129	130	131
139	1	130	131	132
140	1	131	132	133
141	1	132	133	134
142	1	133	134	135
143	1	133	134	149
144	1	133	134	163
145	1	134	135	136
146	1	134	148	149
147	1	134	161	162
148	1	135	134	149
149	1	135	134	163
150	1	135	136	137
151	1	136	137	138
152	1	137	138	139
153	1	138	139	140
154	1	139	140	141
155	1	140	141	142
156	1	141	142	143
157	1	142	143	144
158	1	143	144	145
159	1	144	145	146
160	1	145	146	147
161	1	148	149	150
162	1	149	134	163
163	1	149	150	151
164	1	150	151	152
165	1	151	152	153
166	1	152	153	154
167	1	153	154	155
168	1	154	155	156
169	1	155	156	157
170	1	156	157	158
171	1	157	158	159
172	1	158	159	160
173	1	161	162	163
174	1	162	163	164
175	1	163	164	165
176	1	164	165	166
177	1	165	166	167
178	1	166	167	168
179	1	167	168	169
180	1	168	169	170
181	1	169	170	171
182	1	170	171	172
183	1	171	172	173
184	1	172	173	174
185	1	173	174	175
186	1	173	174	189
187	1	173	174	203
188	1	174	175	176
189	1	174	188	189
190	1	174	201	202
191	1	175	174	189
192	1	175	174	203
193	1	175	176	177
194	1	176	177	178
195	1	177	178	179
196	1	178	179	180
197	1	179	180	181
198	1	180	181	182
199	1	181	182	183
200	1	182	183	184
201	1	183	184	185
202	1	184	185	186
203	1	185	186	187
204	1	188	189	190
205	1	189	174	203
206	1	189	190	191
207	1	190	191	192
208	1	191	192	193
209	1	192	193	194
210	1	193	194	195
211	1	194	195	196
212	1	195	196	197
213	1	196	197	198
214	1	197	198	199
215	1	198	199	200
216	1	201	202	203
217	1	202	203	204
218	1	203	204	205
219	1	204	205	206
220	1	205	206	207
221	1	206	207	208
222	1	207	208	209
223	1	208	209	210
224	1	209	210	211
225	1	210	211	212
226	1	211	212	213
227	1	212	213	214
228	1	213	214	215
229	1	213	214	229
230	1	213	214	243
231	1	214	215	216
232	1	214	228	229
233	1	214	241	242
234	1	215	214	229
235	1	215	214	243
236	1	215	216	217
237	1	216	217	218
238	1	217	218	219
239	1	218	219	220
240	1	219	220	221
241	1	220	221	222
242	1	221	222	223
243	1	222	223	224
244	1	223	224	225
245	1	224	225	226
246	1	225	226	227
247	1	228	229	230
248	1	229	214	243
249	1	229	230	231
250	1	230	231	232
251	1	231	232	233
252	1	232	233	234
253	1	233	234	235
254	1	234	235	236
255	1	235	236	237
256	1	236	237	238
257	1	237	238	239
258	1	238	239	240
259	1	241	242	243
260	1	242	243	244
261	1	243	244	245
262	1	244	245	246
263	1	245	246	247
264	1	246	247	248
265	1	247	248	249
266	1	248	249	250
267	1	249	250	251
268	1	250	251	252
269	1	251	252	253
270	1	252	253	254
271	1	253	254	255
272	1	253	254	268
273	1	253	254	281
274	1	254	255	256
275	1	254	268	269
276	1	254	281	282
277	1	255	254	268
278	1	255	254	281
279	1	255	256	257
280	1	256	257	258
281	1	257	258	259
282	1	258	259	260
283	1	259	260	261
284	1	260	261	262
285	1	261	262	263
286	1	262	263	264
287	1	263	264	265
288	1	264	265	266
289	1	265	266	267
290	1	268	254	281
291	1	268	269	270
292	1	269	270	271
293	1	270	271	272
294	1	271	272	273
295	1	272	273	274
296	1	273	274	275
297	1	274	275	276
298	1	275	276	277
299	1	276	277	278
300	1	277	278	279
301	1	278	279	280
302	1	281	282	283
303	1	282	283	284
304	1	283	284	285
305	1	284	285	286
306	1	285	286	287
307	1	286	287	288
308	1	287	288	289
309	1	288	289	290
310	1	289	290	291
311	1	290	291	292
312	1	291	292	293
