bb145nuc7bl18bn4d30tot400V2

397 atoms
396 bonds
416 angles

1 atom types
1 bond types
1 angle types

-1000 1000 xlo xhi
-1000 1000 ylo yhi
-1000 1000 zlo zhi

Masses

1 1

Atoms

1	1	1	0.0	0.0	0.0	0	0	0
2	1	1	0.0	0.0	1.0	0	0	0
3	1	1	0.0	-0.49999999999999994	1.8660254037844388	0	0	0
4	1	1	0.0	0.0	2.7320508075688776	0	0	0
5	1	1	0.0	-0.49999999999999994	3.5980762113533165	0	0	0
6	1	1	0.0	0.0	4.464101615137755	0	0	0
7	1	1	0.0	-0.49999999999999994	5.330127018922194	0	0	0
8	1	1	0.0	0.0	6.196152422706632	0	0	0
9	1	1	0.0	-0.49999999999999994	7.06217782649107	0	0	0
10	1	1	0.0	0.0	7.928203230275509	0	0	0
11	1	1	0.0	-0.49999999999999994	8.794228634059948	0	0	0
12	1	1	0.0	0.0	9.660254037844387	0	0	0
13	1	1	0.0	-0.49999999999999994	10.526279441628827	0	0	0
14	1	1	0.0	0.0	11.392304845413266	0	0	0
15	1	1	0.0	-0.49999999999999994	12.258330249197705	0	0	0
16	1	1	0.0	0.0	13.124355652982144	0	0	0
17	1	1	0.0	-0.49999999999999994	13.990381056766584	0	0	0
18	1	1	0.0	0.0	14.856406460551023	0	0	0
19	1	1	0.0	-0.49999999999999994	15.722431864335462	0	0	0
20	1	1	0.6982009152166161	-1.2153707003262457	15.694859358003656	0	0	0
21	1	1	1.396401830433232	-1.821113646765936	15.313295516911182	0	0	0
22	1	1	2.0946027456498477	-2.4544290995374323	15.647102376144954	0	0	0
23	1	1	2.7928036608664635	-3.0601720459771227	15.26553853505248	0	0	0
24	1	1	3.4910045760830792	-3.693487498748619	15.599345394286251	0	0	0
25	1	1	4.189205491299695	-4.299230445188309	15.217781553193777	0	0	0
26	1	1	4.887406406516311	-4.932545897959805	15.551588412427549	0	0	0
27	1	1	5.585607321732926	-5.538288844399496	15.170024571335075	0	0	0
28	1	1	6.283808236949541	-6.171604297170992	15.503831430568846	0	0	0
29	1	1	6.982009152166157	-6.7773472436106825	15.122267589476373	0	0	0
30	1	1	7.680210067382772	-7.410662696382179	15.456074448710144	0	0	0
31	1	1	8.378410982599387	-8.01640564282187	15.07451060761767	0	0	0
32	1	1	9.076611897816003	-8.649721095593366	15.408317466851441	0	0	0
33	1	1	9.774812813032618	-9.255464042033056	15.026753625758968	0	0	0
34	1	1	10.473013728249233	-9.888779494804552	15.360560484992739	0	0	0
35	1	1	11.171214643465849	-10.494522441244243	14.978996643900265	0	0	0
36	1	1	11.869415558682464	-11.12783789401574	15.312803503134036	0	0	0
37	1	1	12.56761647389908	-11.73358084045543	14.931239662041563	0	0	0
38	1	1	-0.8975677283176685	-0.916320480674667	15.867516082820712	0	0	0
39	1	1	-1.7951354566353364	-1.3494067022973015	15.785002461379817	0	0	0
40	1	1	-2.6927031849530043	-1.6374087054346869	16.118809320613586	0	0	0
41	1	1	-3.5902709132706723	-2.0704949270573216	16.03629569917269	0	0	0
42	1	1	-4.48783864158834	-2.3584969301947067	16.37010255840646	0	0	0
43	1	1	-5.385406369906008	-2.791583151817341	16.287588936965566	0	0	0
44	1	1	-6.282974098223676	-3.079585154954726	16.621395796199337	0	0	0
45	1	1	-7.180541826541344	-3.5126713765773605	16.53888217475844	0	0	0
46	1	1	-8.078109554859012	-3.8006733797147456	16.872689033992213	0	0	0
47	1	1	-8.97567728317668	-4.23375960133738	16.790175412551317	0	0	0
48	1	1	-9.873245011494348	-4.521761604474765	17.12398227178509	0	0	0
49	1	1	-10.770812739812015	-4.954847826097399	17.041468650344193	0	0	0
50	1	1	-11.668380468129683	-5.2428498292347845	17.375275509577964	0	0	0
51	1	1	-12.565948196447351	-5.675936050857419	17.29276188813707	0	0	0
52	1	1	-13.46351592476502	-5.963938053994804	17.62656874737084	0	0	0
53	1	1	-14.361083653082687	-6.397024275617438	17.544055125929944	0	0	0
54	1	1	-15.258651381400355	-6.685026278754823	17.877861985163715	0	0	0
55	1	1	-16.156219109718023	-7.118112500377458	17.79534836372282	0	0	0
56	1	1	0.1993668131010535	0.13098089215025693	16.472175812343846	0	0	0
57	1	1	0.39873362620210684	0.30255440005075673	17.436963563727872	0	0	0
58	1	1	0.5981004393031601	1.223871855959639	17.770770422961643	0	0	0
59	1	1	0.7974672524042135	1.395445363860139	18.73555817434567	0	0	0
60	1	1	0.9968340655052668	2.3167628197690213	19.06936503357944	0	0	0
61	1	1	1.19620087860632	2.488336327669521	20.034152784963467	0	0	0
62	1	1	1.3955676917073734	3.4096537835784035	20.36795964419724	0	0	0
63	1	1	1.5949345048084267	3.5812272914789034	21.332747395581265	0	0	0
64	1	1	1.79430131790948	4.502544747387786	21.666554254815036	0	0	0
65	1	1	1.9936681310105333	4.674118255288286	22.631342006199063	0	0	0
66	1	1	2.1930349441115866	5.595435711197168	22.965148865432834	0	0	0
67	1	1	2.39240175721264	5.767009219097668	23.92993661681686	0	0	0
68	1	1	2.5917685703136937	6.68832667500655	24.26374347605063	0	0	0
69	1	1	2.791135383414747	6.85990018290705	25.228531227434658	0	0	0
70	1	1	2.9905021965158007	7.781217638815932	25.56233808666843	0	0	0
71	1	1	3.1898690096168543	7.952791146716432	26.527125838052456	0	0	0
72	1	1	3.389235822717908	8.874108602625315	26.860932697286227	0	0	0
73	1	1	3.5886026358189613	9.045682110525814	27.825720448670253	0	0	0
74	1	1	4.371231201708454	8.491178731120732	28.108595916115025	0	0	0
75	1	1	5.153859767597948	7.869526984349224	28.076321567327053	0	0	0
76	1	1	5.936488333487441	7.530750705022487	28.598550597944165	0	0	0
77	1	1	6.719116899376934	6.909098958250979	28.566276249156193	0	0	0
78	1	1	7.501745465266428	6.570322678924242	29.088505279773305	0	0	0
79	1	1	8.284374031155922	5.9486709321527345	29.056230930985333	0	0	0
80	1	1	9.067002597045416	5.609894652825997	29.578459961602444	0	0	0
81	1	1	9.84963116293491	4.98824290605449	29.546185612814472	0	0	0
82	1	1	10.632259728824405	4.649466626727753	30.068414643431584	0	0	0
83	1	1	11.414888294713899	4.027814879956245	30.036140294643612	0	0	0
84	1	1	12.197516860603393	3.689038600629508	30.558369325260724	0	0	0
85	1	1	12.980145426492887	3.0673868538580003	30.526094976472752	0	0	0
86	1	1	13.762773992382382	2.728610574531263	31.048324007089864	0	0	0
87	1	1	14.545402558271876	2.1069588277597555	31.016049658301892	0	0	0
88	1	1	15.32803112416137	1.7681825484330183	31.538278688919004	0	0	0
89	1	1	16.110659690050863	1.1465308016615103	31.50600434013103	0	0	0
90	1	1	16.893288255940355	0.8077545223347731	32.02823337074814	0	0	0
91	1	1	17.675916821829848	0.18610277556326527	31.995959021960168	0	0	0
92	1	1	2.791777147879667	8.803772577637915	28.37938904961152	0	0	0
93	1	1	1.994951659940372	8.317438476268732	28.7379253568605	0	0	0
94	1	1	1.1981261720010772	8.38477297584082	29.33837119699738	0	0	0
95	1	1	0.4013006840617823	7.898438874471637	29.696907504246358	0	0	0
96	1	1	-0.39552480387751254	7.965773374043724	30.297353344383236	0	0	0
97	1	1	-1.1923502918168074	7.479439272674542	30.655889651632215	0	0	0
98	1	1	-1.9891757797561023	7.546773772246629	31.256335491769093	0	0	0
99	1	1	-2.786001267695397	7.060439670877447	31.614871799018072	0	0	0
100	1	1	-3.582826755634692	7.127774170449534	32.21531763915495	0	0	0
101	1	1	-4.379652243573987	6.6414400690803514	32.57385394640393	0	0	0
102	1	1	-5.176477731513282	6.708774568652439	33.17429978654081	0	0	0
103	1	1	-5.973303219452577	6.222440467283256	33.53283609378979	0	0	0
104	1	1	-6.770128707391871	6.289774966855344	34.13328193392667	0	0	0
105	1	1	-7.566954195331165	5.803440865486161	34.49181824117565	0	0	0
106	1	1	-8.36377968327046	5.870775365058249	35.09226408131253	0	0	0
107	1	1	-9.160605171209754	5.384441263689066	35.45080038856151	0	0	0
108	1	1	-9.957430659149049	5.451775763261153	36.05124622869839	0	0	0
109	1	1	-10.754256147088343	4.965441661891971	36.40978253594737	0	0	0
110	1	1	3.8024495870188875	10.013912264218753	27.955334687634355	0	0	0
111	1	1	4.016296538218814	10.7876170545449	28.551698988115923	0	0	0
112	1	1	4.23014348941874	11.690936083835147	28.179833134904552	0	0	0
113	1	1	4.443990440618666	12.464640874161294	28.77619743538612	0	0	0
114	1	1	4.6578373918185925	13.367959903451542	28.40433158217475	0	0	0
115	1	1	4.871684343018519	14.141664693777688	29.000695882656316	0	0	0
116	1	1	5.085531294218445	15.044983723067936	28.628830029444945	0	0	0
117	1	1	5.299378245418371	15.818688513394083	29.225194329926513	0	0	0
118	1	1	5.513225196618297	16.72200754268433	28.85332847671514	0	0	0
119	1	1	5.727072147818223	17.495712333010477	29.44969277719671	0	0	0
120	1	1	5.940919099018149	18.399031362300725	29.077826923985338	0	0	0
121	1	1	6.154766050218075	19.17273615262687	29.674191224466906	0	0	0
122	1	1	6.368613001418002	20.07605518191712	29.302325371255534	0	0	0
123	1	1	6.582459952617928	20.849759972243266	29.898689671737102	0	0	0
124	1	1	6.796306903817854	21.753079001533514	29.52682381852573	0	0	0
125	1	1	7.01015385501778	22.52678379185966	30.1231881190073	0	0	0
126	1	1	7.224000806217706	23.43010282114991	29.751322265795928	0	0	0
127	1	1	7.437847757417632	24.203807611476055	30.347686566277496	0	0	0
128	1	1	7.097359332721697	24.01879063969589	31.269552257580397	0	0	0
129	1	1	6.756870908025762	23.39762839635155	31.975402879235933	0	0	0
130	1	1	6.416382483329827	23.69833184431011	32.86627047267163	0	0	0
131	1	1	6.075894058633892	23.07716960096577	33.572121094327166	0	0	0
132	1	1	5.735405633937957	23.377873048924332	34.462988687762866	0	0	0
133	1	1	5.394917209242022	22.756710805579992	35.1688393094184	0	0	0
134	1	1	5.054428784546087	23.057414253538553	36.0597069028541	0	0	0
135	1	1	4.713940359850152	22.436252010194213	36.76555752450964	0	0	0
136	1	1	4.373451935154217	22.736955458152774	37.65642511794534	0	0	0
137	1	1	4.032963510458282	22.115793214808434	38.362275739600875	0	0	0
138	1	1	3.692475085762347	22.416496662766995	39.253143333036576	0	0	0
139	1	1	3.3519866610664115	21.795334419422655	39.95899395469211	0	0	0
140	1	1	3.011498236370476	22.096037867381217	40.84986154812781	0	0	0
141	1	1	2.6710098116745407	21.474875624036876	41.55571216978335	0	0	0
142	1	1	2.3305213869786052	21.775579071995438	42.44657976321905	0	0	0
143	1	1	1.99003296228267	21.154416828651097	43.152430384874584	0	0	0
144	1	1	1.6495445375867348	21.45512027660966	44.043297978310285	0	0	0
145	1	1	1.3090561128907996	20.83395803326532	44.74914859996582	0	0	0
146	1	1	7.001917979890492	25.030295618188774	29.991480440803535	0	0	0
147	1	1	6.565988202363352	25.924158290662135	30.09624089051582	0	0	0
148	1	1	6.1300584248362116	26.461814837661535	29.37451333351538	0	0	0
149	1	1	5.694128647309071	27.355677510134896	29.479273783227665	0	0	0
150	1	1	5.258198869781931	27.893334057134297	28.757546226227227	0	0	0
151	1	1	4.822269092254791	28.787196729607658	28.86230667593951	0	0	0
152	1	1	4.386339314727651	29.324853276607058	28.140579118939073	0	0	0
153	1	1	3.9504095372005104	30.21871594908042	28.245339568651357	0	0	0
154	1	1	3.51447975967337	30.75637249607982	27.52361201165092	0	0	0
155	1	1	3.07854998214623	31.65023516855318	27.628372461363202	0	0	0
156	1	1	2.6426202046190896	32.18789171555258	26.906644904362764	0	0	0
157	1	1	2.2066904270919494	33.08175438802594	27.01140535407505	0	0	0
158	1	1	1.7707606495648092	33.61941093502534	26.28967779707461	0	0	0
159	1	1	1.334830872037669	34.513273607498704	26.394438246786894	0	0	0
160	1	1	0.8989010945105286	35.050930154498104	25.672710689786456	0	0	0
161	1	1	0.4629713169833882	35.944792826971465	25.77747113949874	0	0	0
162	1	1	0.027041539456247876	36.482449373970866	25.0557435824983	0	0	0
163	1	1	-0.4088882380708925	37.37631204644423	25.160504032210586	0	0	0
164	1	1	8.428416697051002	24.337140474642183	30.379238482757245	0	0	0
165	1	1	9.418985636684372	24.436834163063487	30.473229675549856	0	0	0
166	1	1	10.409554576317742	24.56807976796454	30.43388800517634	0	0	0
167	1	1	11.400123515951112	24.667773456385845	30.52787919796895	0	0	0
168	1	1	12.390692455584482	24.7990190612869	30.488537527595433	0	0	0
169	1	1	13.381261395217852	24.898712749708203	30.582528720388044	0	0	0
170	1	1	14.371830334851222	25.029958354609256	30.543187050014527	0	0	0
171	1	1	15.362399274484591	25.12965204303056	30.63717824280714	0	0	0
172	1	1	16.35296821411796	25.260897647931614	30.59783657243362	0	0	0
173	1	1	17.34353715375133	25.36059133635292	30.691827765226233	0	0	0
174	1	1	18.3341060933847	25.491836941253972	30.652486094852716	0	0	0
175	1	1	19.32467503301807	25.591530629675276	30.746477287645327	0	0	0
176	1	1	20.31524397265144	25.72277623457633	30.70713561727181	0	0	0
177	1	1	21.30581291228481	25.822469922997634	30.80112681006442	0	0	0
178	1	1	22.29638185191818	25.953715527898687	30.761785139690904	0	0	0
179	1	1	23.28695079155155	26.05340921631999	30.855776332483515	0	0	0
180	1	1	24.27751973118492	26.184654821221045	30.816434662109998	0	0	0
181	1	1	25.26808867081829	26.28434850964235	30.91042585490261	0	0	0
182	1	1	25.700085449571283	25.383646033381755	30.864449421753957	0	0	0
183	1	1	26.132082228324276	24.626603024262856	30.37428142454153	0	0	0
184	1	1	26.564079007077268	23.823583581995305	30.784815903589696	0	0	0
185	1	1	26.99607578583026	23.066540572876406	30.294647906377268	0	0	0
186	1	1	27.428072564583253	22.263521130608854	30.705182385425434	0	0	0
187	1	1	27.860069343336246	21.506478121489955	30.215014388213007	0	0	0
188	1	1	28.29206612208924	20.703458679222404	30.625548867261173	0	0	0
189	1	1	28.72406290084223	19.946415670103505	30.135380870048746	0	0	0
190	1	1	29.156059679595224	19.143396227835954	30.545915349096912	0	0	0
191	1	1	29.588056458348216	18.386353218717055	30.055747351884484	0	0	0
192	1	1	30.02005323710121	17.583333776449503	30.46628183093265	0	0	0
193	1	1	30.4520500158542	16.826290767330605	29.976113833720223	0	0	0
194	1	1	30.884046794607194	16.023271325063053	30.38664831276839	0	0	0
195	1	1	31.316043573360187	15.266228315944156	29.896480315555962	0	0	0
196	1	1	31.74804035211318	14.463208873676605	30.30701479460413	0	0	0
197	1	1	32.180037130866175	13.706165864557708	29.8168467973917	0	0	0
198	1	1	32.61203390961917	12.903146422290156	30.227381276439868	0	0	0
199	1	1	33.04403068837217	12.146103413171259	29.73721327922744	0	0	0
200	1	1	25.4787317555876	26.7100121560623	31.790448554016297	0	0	0
201	1	1	25.68937484035691	26.638636337772652	32.765402390565676	0	0	0
202	1	1	25.900017925126217	27.44728321859669	33.3146925806951	0	0	0
203	1	1	26.110661009895527	27.375907400307042	34.289646417244484	0	0	0
204	1	1	26.321304094664836	28.18455428113108	34.83893660737391	0	0	0
205	1	1	26.531947179434145	28.113178462841432	35.81389044392329	0	0	0
206	1	1	26.742590264203454	28.92182534366547	36.36318063405272	0	0	0
207	1	1	26.953233348972763	28.850449525375822	37.3381344706021	0	0	0
208	1	1	27.16387643374207	29.65909640619986	37.887424660731526	0	0	0
209	1	1	27.37451951851138	29.587720587910212	38.86237849728091	0	0	0
210	1	1	27.58516260328069	30.39636746873425	39.411668687410334	0	0	0
211	1	1	27.79580568805	30.324991650444602	40.386622523959716	0	0	0
212	1	1	28.006448772819308	31.13363853126864	40.93591271408914	0	0	0
213	1	1	28.217091857588617	31.062262712978992	41.910866550638524	0	0	0
214	1	1	28.427734942357926	31.87090959380303	42.46015674076795	0	0	0
215	1	1	28.638378027127235	31.799533775513382	43.43511057731733	0	0	0
216	1	1	28.849021111896544	32.608180656337424	43.98440076744676	0	0	0
217	1	1	29.059664196665853	32.53680483804778	44.95935460399614	0	0	0
218	1	1	25.617424927076616	26.859222650535028	30.170504303522787	0	0	0
219	1	1	25.966761183334942	27.727039036216752	29.817150513666608	0	0	0
220	1	1	26.316097439593268	27.854933870518654	28.88892258291775	0	0	0
221	1	1	26.665433695851593	28.722750256200378	28.53556879306157	0	0	0
222	1	1	27.01476995210992	28.85064509050228	27.607340862312714	0	0	0
223	1	1	27.364106208368245	29.718461476184004	27.253987072456535	0	0	0
224	1	1	27.71344246462657	29.846356310485906	26.325759141707678	0	0	0
225	1	1	28.062778720884896	30.71417269616763	25.9724053518515	0	0	0
226	1	1	28.412114977143222	30.84206753046953	25.044177421102642	0	0	0
227	1	1	28.761451233401548	31.709883916151256	24.690823631246463	0	0	0
228	1	1	29.110787489659874	31.837778750453158	23.762595700497606	0	0	0
229	1	1	29.4601237459182	32.70559513613488	23.409241910641427	0	0	0
230	1	1	29.809460002176525	32.83348997043679	22.48101397989257	0	0	0
231	1	1	30.15879625843485	33.701306356118515	22.12766019003639	0	0	0
232	1	1	30.508132514693177	33.82920119042042	21.199432259287533	0	0	0
233	1	1	30.857468770951503	34.69701757610215	20.846078469431355	0	0	0
234	1	1	31.20680502720983	34.82491241040405	19.917850538682497	0	0	0
235	1	1	31.556141283468154	35.69272879608578	19.56449674882632	0	0	0
236	1	1	32.07120133630203	36.162083546167004	20.281727019068	0	0	0
237	1	1	32.58626138913591	36.2099415480034	21.137544028501086	0	0	0
238	1	1	33.101321441969795	36.975029820081474	21.52400628785295	0	0	0
239	1	1	33.616381494803676	37.02288782191787	22.379823297286034	0	0	0
240	1	1	34.13144154763756	37.787976093995944	22.766285556637897	0	0	0
241	1	1	34.64650160047144	37.83583409583234	23.622102566070982	0	0	0
242	1	1	35.16156165330532	38.600922367910414	24.008564825422845	0	0	0
243	1	1	35.6766217061392	38.64878036974681	24.86438183485593	0	0	0
244	1	1	36.19168175897308	39.413868641824884	25.250844094207793	0	0	0
245	1	1	36.706741811806964	39.46172664366128	26.106661103640878	0	0	0
246	1	1	37.221801864640845	40.226814915739354	26.49312336299274	0	0	0
247	1	1	37.73686191747473	40.27467291757575	27.348940372425826	0	0	0
248	1	1	38.25192197030861	41.039761189653824	27.73540263177769	0	0	0
249	1	1	38.76698202314249	41.08761919149022	28.591219641210774	0	0	0
250	1	1	39.28204207597637	41.852707463568294	28.977681900562636	0	0	0
251	1	1	39.79710212881025	41.90056546540469	29.833498909995722	0	0	0
252	1	1	40.31216218164413	42.665653737482764	30.219961169347584	0	0	0
253	1	1	40.827222234478015	42.71351173931916	31.07577817878067	0	0	0
254	1	1	30.790863538887614	36.26717786529848	19.274051847803097	0	0	0
255	1	1	30.025585794307073	36.90988780292861	19.309743719723677	0	0	0
256	1	1	29.260308049726532	37.26215283953552	18.770986522431564	0	0	0
257	1	1	28.495030305145992	37.90486277716565	18.806678394352144	0	0	0
258	1	1	27.72975256056545	38.257127813772556	18.26792119706003	0	0	0
259	1	1	26.96447481598491	38.899837751402686	18.30361306898061	0	0	0
260	1	1	26.19919707140437	39.252102788009594	17.764855871688496	0	0	0
261	1	1	25.43391932682383	39.894812725639724	17.800547743609076	0	0	0
262	1	1	24.66864158224329	40.24707776224663	17.261790546316963	0	0	0
263	1	1	23.90336383766275	40.88978769987676	17.297482418237543	0	0	0
264	1	1	23.138086093082208	41.24205273648367	16.75872522094543	0	0	0
265	1	1	22.372808348501668	41.8847626741138	16.79441709286601	0	0	0
266	1	1	21.607530603921127	42.23702771072071	16.255659895573896	0	0	0
267	1	1	20.842252859340586	42.87973764835084	16.291351767494476	0	0	0
268	1	1	20.076975114760046	43.23200268495775	15.75259457020236	0	0	0
269	1	1	19.311697370179505	43.87471262258788	15.78828644212294	0	0	0
270	1	1	18.546419625598965	44.22697765919479	15.249529244830825	0	0	0
271	1	1	17.781141881018424	44.86968759682492	15.285221116751405	0	0	0
272	1	1	32.15619149076905	35.51797416307992	18.783855623237137	0	0	0
273	1	1	32.75624169806994	35.75695277426241	18.0204232607351	0	0	0
274	1	1	33.35629190537084	35.21529025985571	17.431745531238924	0	0	0
275	1	1	33.956342112671734	35.4542688710382	16.668313168736887	0	0	0
276	1	1	34.55639231997263	34.91260635663151	16.07963543924071	0	0	0
277	1	1	35.156442527273526	35.151584967813996	15.316203076738672	0	0	0
278	1	1	35.75649273457442	34.6099224534073	14.727525347242496	0	0	0
279	1	1	36.35654294187532	34.84890106458979	13.964092984740457	0	0	0
280	1	1	36.956593149176214	34.307238550183094	13.375415255244281	0	0	0
281	1	1	37.55664335647711	34.54621716136558	12.611982892742242	0	0	0
282	1	1	38.156693563778006	34.00455464695889	12.023305163246066	0	0	0
283	1	1	38.7567437710789	34.243533258141376	11.259872800744027	0	0	0
284	1	1	39.3567939783798	33.70187074373468	10.671195071247851	0	0	0
285	1	1	39.956844185680694	33.94084935491717	9.907762708745812	0	0	0
286	1	1	40.55689439298159	33.399186840510474	9.319084979249636	0	0	0
287	1	1	41.156944600282486	33.63816545169296	8.555652616747597	0	0	0
288	1	1	41.75699480758338	33.09650293728627	7.966974887251421	0	0	0
289	1	1	42.35704501488428	33.335481548468756	7.203542524749382	0	0	0
290	1	1	41.90493949903032	34.012573205974945	6.62289849449509	0	0	0
291	1	1	41.45283398317636	34.88927379719296	6.45859184249219	0	0	0
292	1	1	41.0007284673224	35.18533035815669	5.617193532983099	0	0	0
293	1	1	40.548622951468445	36.06203094937471	5.4528868809801985	0	0	0
294	1	1	40.09651743561449	36.358087510338436	4.611488571471107	0	0	0
295	1	1	39.64441191976053	37.234788101556454	4.447181919468207	0	0	0
296	1	1	39.19230640390657	37.53084466252018	3.6057836099591154	0	0	0
297	1	1	38.74020088805261	38.4075452537382	3.441476957956215	0	0	0
298	1	1	38.288095372198654	38.703601814701926	2.6000786484471234	0	0	0
299	1	1	37.835989856344696	39.580302405919944	2.435771996444223	0	0	0
300	1	1	37.38388434049074	39.87635896688367	1.5943736869351315	0	0	0
301	1	1	36.93177882463678	40.75305955810169	1.430067034932231	0	0	0
302	1	1	36.47967330878282	41.04911611906542	0.5886687254231396	0	0	0
303	1	1	36.02756779292886	41.925816710283435	0.4243620734202391	0	0	0
304	1	1	35.575462277074905	42.22187327124716	-0.4170362360888523	0	0	0
305	1	1	35.12335676122095	43.09857386246518	-0.5813428880917528	0	0	0
306	1	1	34.67125124536699	43.39463042342891	-1.4227411976008444	0	0	0
307	1	1	34.21914572951303	44.271331014646925	-1.5870478496037448	0	0	0
308	1	1	42.55605969124889	32.51594764919262	6.666181057458751	0	0	0
309	1	1	42.7550743676135	32.07489120680228	5.791045426132115	0	0	0
310	1	1	42.954089043978115	31.09647329712131	5.735443694081617	0	0	0
311	1	1	43.15310372034273	30.655416854730973	4.8603080627549815	0	0	0
312	1	1	43.35211839670734	29.676998945050006	4.804706330704484	0	0	0
313	1	1	43.55113307307195	29.235942502659668	3.929570699377848	0	0	0
314	1	1	43.750147749436564	28.2575245929787	3.8739689673273503	0	0	0
315	1	1	43.94916242580118	27.816468150588364	2.9988333360007147	0	0	0
316	1	1	44.14817710216579	26.838050240907396	2.943231603950217	0	0	0
317	1	1	44.3471917785304	26.39699379851706	2.0680959726235812	0	0	0
318	1	1	44.546206454895014	25.41857588883609	2.0124942405730835	0	0	0
319	1	1	44.745221131259626	24.977519446445754	1.137358609246448	0	0	0
320	1	1	44.94423580762424	23.999101536764787	1.08175687719595	0	0	0
321	1	1	45.14325048398885	23.55804509437445	0.20662124586931463	0	0	0
322	1	1	45.34226516035346	22.579627184693482	0.15101951381881668	0	0	0
323	1	1	45.541279836718076	22.138570742303145	-0.7241161175078188	0	0	0
324	1	1	45.74029451308269	21.160152832622177	-0.7797178495583168	0	0	0
325	1	1	45.9393091894473	20.71909639023184	-1.6548534808849522	0	0	0
326	1	1	43.21103847961868	33.717241889107335	7.557031144801638	0	0	0
327	1	1	44.06503194435308	33.87111173223162	8.054041440034885	0	0	0
328	1	1	44.91902540908748	34.378470195408156	8.169291394629553	0	0	0
329	1	1	45.77301887382188	34.53234003853244	8.6663016898628	0	0	0
330	1	1	46.627012338556284	35.039698501708976	8.781551644457469	0	0	0
331	1	1	47.481005803290685	35.19356834483326	9.278561939690716	0	0	0
332	1	1	48.334999268025086	35.7009268080098	9.393811894285385	0	0	0
333	1	1	49.18899273275949	35.85479665113408	9.890822189518632	0	0	0
334	1	1	50.04298619749389	36.36215511431062	10.0060721441133	0	0	0
335	1	1	50.89697966222829	36.5160249574349	10.503082439346548	0	0	0
336	1	1	51.75097312696269	37.02338342061144	10.618332393941216	0	0	0
337	1	1	52.60496659169709	37.17725326373572	11.115342689174463	0	0	0
338	1	1	53.45896005643149	37.68461172691226	11.230592643769132	0	0	0
339	1	1	54.312953521165895	37.83848157003654	11.727602939002379	0	0	0
340	1	1	55.166946985900296	38.34584003321308	11.842852893597048	0	0	0
341	1	1	56.0209404506347	38.49970987633736	12.339863188830295	0	0	0
342	1	1	56.8749339153691	39.0070683395139	12.455113143424963	0	0	0
343	1	1	57.7289273801035	39.16093818263818	12.95212343865821	0	0	0
344	1	1	57.72125317685418	40.076874405930546	13.353373910888978	0	0	0
345	1	1	57.713578973604854	40.66947320743272	14.158835124767506	0	0	0
346	1	1	57.70590477035553	41.663322481165665	14.048360115353674	0	0	0
347	1	1	57.69823056710621	42.25592128266784	14.853821329232202	0	0	0
348	1	1	57.690556363856885	43.24977055640079	14.74334631981837	0	0	0
349	1	1	57.68288216060756	43.84236935790297	15.548807533696898	0	0	0
350	1	1	57.67520795735824	44.836218631635916	15.438332524283066	0	0	0
351	1	1	57.667533754108916	45.42881743313809	16.243793738161592	0	0	0
352	1	1	57.65985955085959	46.42266670687104	16.13331872874776	0	0	0
353	1	1	57.65218534761027	47.01526550837322	16.938779942626287	0	0	0
354	1	1	57.64451114436095	48.00911478210617	16.828304933212454	0	0	0
355	1	1	57.636836941111625	48.601713583608344	17.63376614709098	0	0	0
356	1	1	57.6291627378623	49.59556285734129	17.52329113767715	0	0	0
357	1	1	57.62148853461298	50.18816165884347	18.328752351555675	0	0	0
358	1	1	57.613814331363656	51.18201093257642	18.218277342141842	0	0	0
359	1	1	57.60614012811433	51.774609734078595	19.02373855602037	0	0	0
360	1	1	57.59846592486501	52.76845900781154	18.913263546606537	0	0	0
361	1	1	57.59079172161569	53.36105780931372	19.718724760485063	0	0	0
362	1	1	58.50113960012705	39.08007428067652	12.321925599399906	0	0	0
363	1	1	59.273351820150594	39.32514300695774	11.73572631021132	0	0	0
364	1	1	60.04556404017414	38.940013893980655	11.230390922984395	0	0	0
365	1	1	60.81777626019769	39.18508262026187	10.644191633795808	0	0	0
366	1	1	61.58998848022124	38.79995350728479	10.138856246568883	0	0	0
367	1	1	62.362200700244784	39.04502223356601	9.552656957380297	0	0	0
368	1	1	63.13441292026833	38.659893120588926	9.047321570153372	0	0	0
369	1	1	63.90662514029188	38.904961846870144	8.461122280964785	0	0	0
370	1	1	64.67883736031543	38.51983273389306	7.95578689373786	0	0	0
371	1	1	65.45104958033897	38.76490146017428	7.369587604549275	0	0	0
372	1	1	66.22326180036252	38.379772347197196	6.86425221732235	0	0	0
373	1	1	66.99547402038607	38.624841073478414	6.278052928133764	0	0	0
374	1	1	67.76768624040962	38.23971196050133	5.772717540906839	0	0	0
375	1	1	68.53989846043316	38.48478068678255	5.186518251718254	0	0	0
376	1	1	69.31211068045671	38.09965157380547	4.681182864491329	0	0	0
377	1	1	70.08432290048026	38.344720300086685	4.094983575302743	0	0	0
378	1	1	70.8565351205038	37.9595911871096	3.589648188075819	0	0	0
379	1	1	71.62874734052735	38.20465991339082	3.0034488988872328	0	0	0
380	1	1	57.81959599213675	38.47995428849981	13.678787142661724	0	0	0
381	1	1	57.910264604169996	37.52687308460617	13.967604423267678	0	0	0
382	1	1	58.000933216203244	37.30045558471605	14.937405598012003	0	0	0
383	1	1	58.09160182823649	36.34737438082241	15.226222878617957	0	0	0
384	1	1	58.18227044026974	36.12095688093228	16.19602405336228	0	0	0
385	1	1	58.27293905230299	35.167875677038644	16.484841333968234	0	0	0
386	1	1	58.363607664336236	34.94145817714852	17.454642508712556	0	0	0
387	1	1	58.454276276369484	33.98837697325488	17.74345978931851	0	0	0
388	1	1	58.54494488840273	33.761959473364755	18.713260964062833	0	0	0
389	1	1	58.63561350043598	32.808878269471116	19.002078244668787	0	0	0
390	1	1	58.72628211246923	32.58246076958099	19.97187941941311	0	0	0
391	1	1	58.816950724502476	31.62937956568735	20.260696700019064	0	0	0
392	1	1	58.907619336535724	31.402962065797226	21.230497874763387	0	0	0
393	1	1	58.99828794856897	30.449880861903587	21.51931515536934	0	0	0
394	1	1	59.08895656060222	30.22346336201346	22.489116330113664	0	0	0
395	1	1	59.17962517263547	29.270382158119823	22.777933610719618	0	0	0
396	1	1	59.270293784668716	29.043964658229697	23.74773478546394	0	0	0
397	1	1	59.360962396701964	28.09088345433606	24.036552066069895	0	0	0

Bonds

1	1	1	2
2	1	2	3
3	1	3	4
4	1	4	5
5	1	5	6
6	1	6	7
7	1	7	8
8	1	8	9
9	1	9	10
10	1	10	11
11	1	11	12
12	1	12	13
13	1	13	14
14	1	14	15
15	1	15	16
16	1	16	17
17	1	17	18
18	1	18	19
19	1	19	20
20	1	19	38
21	1	19	56
22	1	20	21
23	1	21	22
24	1	22	23
25	1	23	24
26	1	24	25
27	1	25	26
28	1	26	27
29	1	27	28
30	1	28	29
31	1	29	30
32	1	30	31
33	1	31	32
34	1	32	33
35	1	33	34
36	1	34	35
37	1	35	36
38	1	36	37
39	1	38	39
40	1	39	40
41	1	40	41
42	1	41	42
43	1	42	43
44	1	43	44
45	1	44	45
46	1	45	46
47	1	46	47
48	1	47	48
49	1	48	49
50	1	49	50
51	1	50	51
52	1	51	52
53	1	52	53
54	1	53	54
55	1	54	55
56	1	56	57
57	1	57	58
58	1	58	59
59	1	59	60
60	1	60	61
61	1	61	62
62	1	62	63
63	1	63	64
64	1	64	65
65	1	65	66
66	1	66	67
67	1	67	68
68	1	68	69
69	1	69	70
70	1	70	71
71	1	71	72
72	1	72	73
73	1	73	74
74	1	73	92
75	1	73	110
76	1	74	75
77	1	75	76
78	1	76	77
79	1	77	78
80	1	78	79
81	1	79	80
82	1	80	81
83	1	81	82
84	1	82	83
85	1	83	84
86	1	84	85
87	1	85	86
88	1	86	87
89	1	87	88
90	1	88	89
91	1	89	90
92	1	90	91
93	1	92	93
94	1	93	94
95	1	94	95
96	1	95	96
97	1	96	97
98	1	97	98
99	1	98	99
100	1	99	100
101	1	100	101
102	1	101	102
103	1	102	103
104	1	103	104
105	1	104	105
106	1	105	106
107	1	106	107
108	1	107	108
109	1	108	109
110	1	110	111
111	1	111	112
112	1	112	113
113	1	113	114
114	1	114	115
115	1	115	116
116	1	116	117
117	1	117	118
118	1	118	119
119	1	119	120
120	1	120	121
121	1	121	122
122	1	122	123
123	1	123	124
124	1	124	125
125	1	125	126
126	1	126	127
127	1	127	128
128	1	127	146
129	1	127	164
130	1	128	129
131	1	129	130
132	1	130	131
133	1	131	132
134	1	132	133
135	1	133	134
136	1	134	135
137	1	135	136
138	1	136	137
139	1	137	138
140	1	138	139
141	1	139	140
142	1	140	141
143	1	141	142
144	1	142	143
145	1	143	144
146	1	144	145
147	1	146	147
148	1	147	148
149	1	148	149
150	1	149	150
151	1	150	151
152	1	151	152
153	1	152	153
154	1	153	154
155	1	154	155
156	1	155	156
157	1	156	157
158	1	157	158
159	1	158	159
160	1	159	160
161	1	160	161
162	1	161	162
163	1	162	163
164	1	164	165
165	1	165	166
166	1	166	167
167	1	167	168
168	1	168	169
169	1	169	170
170	1	170	171
171	1	171	172
172	1	172	173
173	1	173	174
174	1	174	175
175	1	175	176
176	1	176	177
177	1	177	178
178	1	178	179
179	1	179	180
180	1	180	181
181	1	181	182
182	1	181	200
183	1	181	218
184	1	182	183
185	1	183	184
186	1	184	185
187	1	185	186
188	1	186	187
189	1	187	188
190	1	188	189
191	1	189	190
192	1	190	191
193	1	191	192
194	1	192	193
195	1	193	194
196	1	194	195
197	1	195	196
198	1	196	197
199	1	197	198
200	1	198	199
201	1	200	201
202	1	201	202
203	1	202	203
204	1	203	204
205	1	204	205
206	1	205	206
207	1	206	207
208	1	207	208
209	1	208	209
210	1	209	210
211	1	210	211
212	1	211	212
213	1	212	213
214	1	213	214
215	1	214	215
216	1	215	216
217	1	216	217
218	1	218	219
219	1	219	220
220	1	220	221