bb181nuc7bl22bn4d30tot500V2

491 atoms
490 bonds
510 angles

1 atom types
1 bond types
1 angle types

-1000 1000 xlo xhi
-1000 1000 ylo yhi
-1000 1000 zlo zhi

Masses

1 1

Atoms

1	1	1	0.0	0.0	0.0	0	0	0
2	1	1	0.0	0.0	1.0	0	0	0
3	1	1	0.0	-0.49999999999999994	1.8660254037844388	0	0	0
4	1	1	0.0	0.0	2.7320508075688776	0	0	0
5	1	1	0.0	-0.49999999999999994	3.5980762113533165	0	0	0
6	1	1	0.0	0.0	4.464101615137755	0	0	0
7	1	1	0.0	-0.49999999999999994	5.330127018922194	0	0	0
8	1	1	0.0	0.0	6.196152422706632	0	0	0
9	1	1	0.0	-0.49999999999999994	7.06217782649107	0	0	0
10	1	1	0.0	0.0	7.928203230275509	0	0	0
11	1	1	0.0	-0.49999999999999994	8.794228634059948	0	0	0
12	1	1	0.0	0.0	9.660254037844387	0	0	0
13	1	1	0.0	-0.49999999999999994	10.526279441628827	0	0	0
14	1	1	0.0	0.0	11.392304845413266	0	0	0
15	1	1	0.0	-0.49999999999999994	12.258330249197705	0	0	0
16	1	1	0.0	0.0	13.124355652982144	0	0	0
17	1	1	0.0	-0.49999999999999994	13.990381056766584	0	0	0
18	1	1	0.0	0.0	14.856406460551023	0	0	0
19	1	1	0.0	-0.49999999999999994	15.722431864335462	0	0	0
20	1	1	0.0	0.0	16.5884572681199	0	0	0
21	1	1	0.0	-0.49999999999999994	17.454482671904337	0	0	0
22	1	1	0.0	0.0	18.320508075688775	0	0	0
23	1	1	0.0	-0.49999999999999994	19.186533479473212	0	0	0
24	1	1	0.7062647996741303	-0.12623508386109034	19.78777371449157	0	0	0
25	1	1	1.4125295993482614	-0.10316528895061405	20.495345489864253	0	0	0
26	1	1	2.1187943990223923	0.5211447409782225	20.829152349098024	0	0	0
27	1	1	2.825059198696523	0.5442145358886988	21.536724124470705	0	0	0
28	1	1	3.531323998370654	1.1685245658175354	21.870530983704477	0	0	0
29	1	1	4.2375887980447855	1.1915943607280117	22.578102759077158	0	0	0
30	1	1	4.943853597718917	1.8159043906568484	22.91190961831093	0	0	0
31	1	1	5.650118397393048	1.8389741855673247	23.61948139368361	0	0	0
32	1	1	6.35638319706718	2.463284215496161	23.953288252917382	0	0	0
33	1	1	7.062647996741311	2.4863540104066373	24.660860028290063	0	0	0
34	1	1	7.768912796415442	3.110664040335474	24.994666887523834	0	0	0
35	1	1	8.475177596089573	3.13373383524595	25.702238662896516	0	0	0
36	1	1	9.181442395763703	3.7580438651747867	26.036045522130287	0	0	0
37	1	1	9.887707195437834	3.781113660085263	26.74361729750297	0	0	0
38	1	1	10.593971995111964	4.405423690014099	27.07742415673674	0	0	0
39	1	1	11.300236794786095	4.428493484924576	27.78499593210942	0	0	0
40	1	1	12.006501594460225	5.052803514853412	28.118802791343192	0	0	0
41	1	1	12.712766394134356	5.075873309763889	28.826374566715874	0	0	0
42	1	1	13.419031193808486	5.7001833396927255	29.160181425949645	0	0	0
43	1	1	14.125295993482617	5.723253134603202	29.867753201322326	0	0	0
44	1	1	14.831560793156747	6.347563164532039	30.201560060556098	0	0	0
45	1	1	15.537825592830877	6.370632959442515	30.90913183592878	0	0	0
46	1	1	0.18753594591873238	-1.46693620225038	19.01371956288668	0	0	0
47	1	1	0.3750718918374649	-2.217920558944793	18.380590219870072	0	0	0
48	1	1	0.5626078377561975	-3.1417188322257363	18.714397079103843	0	0	0
49	1	1	0.7501437836749301	-3.8927031889201493	18.081267736087234	0	0	0
50	1	1	0.9376797295936626	-4.816501462201092	18.415074595321006	0	0	0
51	1	1	1.1252156755123952	-5.567485818895506	17.781945252304396	0	0	0
52	1	1	1.312751621431128	-6.491284092176449	18.115752111538168	0	0	0
53	1	1	1.5002875673498606	-7.2422684488708615	17.48262276852156	0	0	0
54	1	1	1.6878235132685933	-8.166066722151804	17.81642962775533	0	0	0
55	1	1	1.875359459187326	-8.917051078846217	17.18330028473872	0	0	0
56	1	1	2.0628954051060586	-9.84084935212716	17.517107143972492	0	0	0
57	1	1	2.2504313510247913	-10.591833708821573	16.883977800955883	0	0	0
58	1	1	2.437967296943524	-11.515631982102516	17.217784660189654	0	0	0
59	1	1	2.6255032428622567	-12.26661633879693	16.584655317173045	0	0	0
60	1	1	2.8130391887809894	-13.190414612077872	16.918462176406816	0	0	0
61	1	1	3.000575134699722	-13.941398968772285	16.285332833390207	0	0	0
62	1	1	3.1881110806184547	-14.865197242053227	16.61913969262398	0	0	0
63	1	1	3.3756470265371874	-15.616181598747641	15.986010349607367	0	0	0
64	1	1	3.56318297245592	-16.539979872028585	16.319817208841137	0	0	0
65	1	1	3.7507189183746528	-17.290964228723	15.686687865824526	0	0	0
66	1	1	3.9382548642933854	-18.214762502003943	16.020494725058295	0	0	0
67	1	1	4.125790810212118	-18.965746858698356	15.387365382041684	0	0	0
68	1	1	-0.8938007455928618	-0.40753900273918925	19.625362821203204	0	0	0
69	1	1	-1.7876014911857245	-0.5468801011170802	20.051630677697787	0	0	0
70	1	1	-2.6814022367785872	-0.24739185776497818	20.38543753693156	0	0	0
71	1	1	-3.57520298237145	-0.3867329561428691	20.81170539342614	0	0	0
72	1	1	-4.469003727964313	-0.08724471279076712	21.145512252659913	0	0	0
73	1	1	-5.362804473557175	-0.22658581116865806	21.571780109154496	0	0	0
74	1	1	-6.256605219150038	0.07290243218344394	21.905586968388267	0	0	0
75	1	1	-7.150405964742901	-0.066438666194447	22.33185482488285	0	0	0
76	1	1	-8.044206710335764	0.233049577157655	22.66566168411662	0	0	0
77	1	1	-8.938007455928627	0.09370847877976407	23.091929540611204	0	0	0
78	1	1	-9.83180820152149	0.39319672213186607	23.425736399844975	0	0	0
79	1	1	-10.725608947114353	0.25385562375397513	23.85200425633956	0	0	0
80	1	1	-11.619409692707215	0.5533438671060771	24.18581111557333	0	0	0
81	1	1	-12.513210438300078	0.41400276872818614	24.612078972067913	0	0	0
82	1	1	-13.40701118389294	0.7134910120802882	24.945885831301684	0	0	0
83	1	1	-14.300811929485803	0.5741499137023973	25.372153687796267	0	0	0
84	1	1	-15.194612675078666	0.8736381570544993	25.70596054703004	0	0	0
85	1	1	-16.08841342067153	0.7342970586766084	26.13222840352462	0	0	0
86	1	1	-16.98221416626439	1.0337853020287104	26.466035262758393	0	0	0
87	1	1	-17.876014911857254	0.8944442036508196	26.892303119252976	0	0	0
88	1	1	-18.769815657450117	1.1939324470029216	27.226109978486747	0	0	0
89	1	1	-19.66361640304298	1.0545913486250307	27.65237783498133	0	0	0
90	1	1	-20.557417148635842	1.3540795919771327	27.9861846942151	0	0	0
91	1	1	-20.47743248693277	2.2706246161034205	28.378036289390607	0	0	0
92	1	1	-20.397447825229698	2.868450093121255	29.175662237389194	0	0	0
93	1	1	-20.317463163526625	3.8581271653145937	29.056743161261494	0	0	0
94	1	1	-20.237478501823553	4.455952642332428	29.85436910926008	0	0	0
95	1	1	-20.15749384012048	5.445629714525767	29.73545003313238	0	0	0
96	1	1	-20.077509178417408	6.043455191543601	30.533075981130967	0	0	0
97	1	1	-19.997524516714336	7.03313226373694	30.414156905003267	0	0	0
98	1	1	-19.917539855011263	7.630957740754774	31.211782853001854	0	0	0
99	1	1	-19.83755519330819	8.620634812948113	31.092863776874154	0	0	0
100	1	1	-19.75757053160512	9.218460289965947	31.89048972487274	0	0	0
101	1	1	-19.677585869902046	10.208137362159285	31.77157064874504	0	0	0
102	1	1	-19.597601208198974	10.805962839177118	32.56919659674363	0	0	0
103	1	1	-19.5176165464959	11.795639911370458	32.45027752061593	0	0	0
104	1	1	-19.43763188479283	12.393465388388291	33.24790346861452	0	0	0
105	1	1	-19.357647223089756	13.383142460581631	33.128984392486814	0	0	0
106	1	1	-19.277662561386684	13.980967937599464	33.926610340485404	0	0	0
107	1	1	-19.19767789968361	14.970645009792804	33.8076912643577	0	0	0
108	1	1	-19.11769323798054	15.568470486810638	34.60531721235629	0	0	0
109	1	1	-19.037708576277467	16.558147559003977	34.48639813622859	0	0	0
110	1	1	-18.957723914574395	17.155973036021813	35.28402408422718	0	0	0
111	1	1	-18.877739252871322	18.14565010821515	35.165105008099474	0	0	0
112	1	1	-18.79775459116825	18.743475585232986	35.96273095609806	0	0	0
113	1	1	-20.881617453403024	0.7193271871622241	28.687600082534004	0	0	0
114	1	1	-21.205817758170205	-0.18109221468020154	28.977667425016048	0	0	0
115	1	1	-21.530018062937387	-0.38009622820372513	29.902487172313	0	0	0
116	1	1	-21.85421836770457	-1.2805156300461507	30.19255451479504	0	0	0
117	1	1	-22.17841867247175	-1.4795196435696742	31.117374262091992	0	0	0
118	1	1	-22.50261897723893	-2.3799390454121	31.407441604574036	0	0	0
119	1	1	-22.826819282006113	-2.5789430589356237	32.33226135187098	0	0	0
120	1	1	-23.151019586773295	-3.4793624607780496	32.62232869435302	0	0	0
121	1	1	-23.475219891540476	-3.678366474301573	33.54714844164997	0	0	0
122	1	1	-23.799420196307658	-4.578785876143999	33.83721578413201	0	0	0
123	1	1	-24.12362050107484	-4.777789889667522	34.762035531428964	0	0	0
124	1	1	-24.44782080584202	-5.678209291509948	35.052102873911004	0	0	0
125	1	1	-24.772021110609202	-5.877213305033471	35.976922621207954	0	0	0
126	1	1	-25.096221415376384	-6.777632706875896	36.266989963689994	0	0	0
127	1	1	-25.420421720143565	-6.976636720399419	37.191809710986945	0	0	0
128	1	1	-25.744622024910747	-7.877056122241845	37.481877053468985	0	0	0
129	1	1	-26.06882232967793	-8.076060135765369	38.406696800765936	0	0	0
130	1	1	-26.39302263444511	-8.976479537607794	38.696764143247975	0	0	0
131	1	1	-26.71722293921229	-9.175483551131318	39.621583890544926	0	0	0
132	1	1	-27.041423243979473	-10.075902952973744	39.911651233026966	0	0	0
133	1	1	-27.365623548746655	-10.274906966497268	40.83647098032392	0	0	0
134	1	1	-27.689823853513836	-11.175326368339693	41.126538322805956	0	0	0
135	1	1	-21.2082719645732	1.3722006623381664	27.22719876853524	0	0	0
136	1	1	-21.859126780510557	1.767386932454518	26.578958210962146	0	0	0
137	1	1	-22.509981596447915	1.4035872768910072	25.91259658302802	0	0	0
138	1	1	-23.160836412385272	1.7987735470073587	25.264356025454926	0	0	0
139	1	1	-23.81169122832263	1.434973891443848	24.5979943975208	0	0	0
140	1	1	-24.462546044259987	1.8301601615601994	23.949753839947707	0	0	0
141	1	1	-25.113400860197345	1.4663605059966887	23.28339221201358	0	0	0
142	1	1	-25.764255676134702	1.8615467761130402	22.635151654440488	0	0	0
143	1	1	-26.41511049207206	1.4977471205495294	21.968790026506362	0	0	0
144	1	1	-27.065965308009417	1.892933390665881	21.32054946893327	0	0	0
145	1	1	-27.716820123946775	1.5291337351023702	20.654187840999143	0	0	0
146	1	1	-28.367674939884132	1.9243200052187217	20.00594728342605	0	0	0
147	1	1	-29.01852975582149	1.560520349655211	19.339585655491923	0	0	0
148	1	1	-29.669384571758847	1.9557066197715625	18.69134509791883	0	0	0
149	1	1	-30.320239387696205	1.5919069642080517	18.024983469984704	0	0	0
150	1	1	-30.971094203633562	1.9870932343244032	17.37674291241161	0	0	0
151	1	1	-31.62194901957092	1.6232935787608924	16.710381284477485	0	0	0
152	1	1	-32.27280383550828	2.018479848877244	16.062140726904392	0	0	0
153	1	1	-32.923658651445635	1.6546801933137334	15.395779098970266	0	0	0
154	1	1	-33.57451346738299	2.049866463430085	14.747538541397173	0	0	0
155	1	1	-34.22536828332035	1.6860668078665744	14.081176913463047	0	0	0
156	1	1	-34.87622309925771	2.081253077982926	13.432936355889954	0	0	0
157	1	1	-35.527077915195065	1.7174534224194153	12.766574727955827	0	0	0
158	1	1	-36.28873912137686	2.3567001633258493	12.660575618345431	0	0	0
159	1	1	-37.05040032755865	2.963303635042428	12.888401067097515	0	0	0
160	1	1	-37.81206153374044	3.4639079971486115	12.476979774943164	0	0	0
161	1	1	-38.57372273992223	4.070511468865191	12.704805223695248	0	0	0
162	1	1	-39.335383946104024	4.571115830971374	12.293383931540896	0	0	0
163	1	1	-40.097045152285816	5.1777193026879536	12.52120938029298	0	0	0
164	1	1	-40.85870635846761	5.678323664794137	12.109788088138629	0	0	0
165	1	1	-41.6203675646494	6.284927136510716	12.337613536890712	0	0	0
166	1	1	-42.38202877083119	6.7855314986168995	11.926192244736361	0	0	0
167	1	1	-43.14368997701298	7.392134970333479	12.154017693488445	0	0	0
168	1	1	-43.905351183194774	7.892739332439662	11.742596401334094	0	0	0
169	1	1	-44.667012389376566	8.49934280415624	11.970421850086177	0	0	0
170	1	1	-45.42867359555836	8.999947166262425	11.559000557931826	0	0	0
171	1	1	-46.19033480174015	9.606550637979003	11.78682600668391	0	0	0
172	1	1	-46.95199600792194	10.107155000085188	11.375404714529559	0	0	0
173	1	1	-47.71365721410373	10.713758471801766	11.603230163281642	0	0	0
174	1	1	-48.475318420285525	11.21436283390795	11.191808871127291	0	0	0
175	1	1	-49.23697962646732	11.820966305624529	11.419634319879375	0	0	0
176	1	1	-49.99864083264911	12.321570667730713	11.008213027725024	0	0	0
177	1	1	-50.7603020388309	12.928174139447291	11.236038476477107	0	0	0
178	1	1	-51.52196324501269	13.428778501553476	10.824617184322756	0	0	0
179	1	1	-52.283624451194484	14.035381973270054	11.05244263307484	0	0	0
180	1	1	-35.8744334745921	0.8358748473816296	13.086204719336989	0	0	0
181	1	1	-36.22178903398914	-0.08740958972375912	12.922223124165582	0	0	0
182	1	1	-36.56914459338618	-0.6910640354479876	13.63982010403196	0	0	0
183	1	1	-36.916500152783215	-1.6143484725533763	13.475838508860553	0	0	0
184	1	1	-37.26385571218025	-2.218002918277605	14.193435488726932	0	0	0
185	1	1	-37.61121127157729	-3.1412873553829934	14.029453893555525	0	0	0
186	1	1	-37.95856683097433	-3.7449418011072217	14.747050873421903	0	0	0
187	1	1	-38.305922390371364	-4.66822623821261	14.583069278250496	0	0	0
188	1	1	-38.6532779497684	-5.271880683936839	15.300666258116875	0	0	0
189	1	1	-39.00063350916544	-6.195165121042228	15.136684662945468	0	0	0
190	1	1	-39.34798906856248	-6.798819566766457	15.854281642811847	0	0	0
191	1	1	-39.695344627959514	-7.722104003871846	15.69030004764044	0	0	0
192	1	1	-40.04270018735655	-8.325758449596075	16.40789702750682	0	0	0
193	1	1	-40.39005574675359	-9.249042886701464	16.243915432335413	0	0	0
194	1	1	-40.737411306150626	-9.852697332425691	16.96151241220179	0	0	0
195	1	1	-41.084766865547664	-10.77598176953108	16.797530817030385	0	0	0
196	1	1	-41.4321224249447	-11.379636215255308	17.515127796896763	0	0	0
197	1	1	-41.77947798434174	-12.302920652360697	17.351146201725356	0	0	0
198	1	1	-42.126833543738776	-12.906575098084925	18.068743181591735	0	0	0
199	1	1	-42.474189103135814	-13.829859535190314	17.904761586420328	0	0	0
200	1	1	-42.82154466253285	-14.433513980914542	18.622358566286707	0	0	0
201	1	1	-43.16890022192989	-15.356798418019931	18.4583769711153	0	0	0
202	1	1	-35.069840555391906	1.5954687953088165	11.885635599781283	0	0	0
203	1	1	-34.61260319558875	1.9302965734471378	11.061727622039113	0	0	0
204	1	1	-34.15536583578559	1.384185223410915	10.35980427140754	0	0	0
205	1	1	-33.69812847598243	1.7190130015492364	9.53589629366537	0	0	0
206	1	1	-33.24089111617927	1.1729016515130137	8.8339729430338	0	0	0
207	1	1	-32.78365375637611	1.507729429651335	8.01006496529163	0	0	0
208	1	1	-32.32641639657295	0.9616180796151124	7.308141614660058	0	0	0
209	1	1	-31.869179036769793	1.2964458577534337	6.484233636917888	0	0	0
210	1	1	-31.411941676966634	0.750334507717211	5.782310286286316	0	0	0
211	1	1	-30.954704317163475	1.0851622858555323	4.958402308544146	0	0	0
212	1	1	-30.497466957360317	0.5390509358193096	4.256478957912575	0	0	0
213	1	1	-30.040229597557158	0.873878713957631	3.432570980170404	0	0	0
214	1	1	-29.582992237754	0.32776736392140826	2.7306476295388324	0	0	0
215	1	1	-29.12575487795084	0.6625951420597296	1.906739651796662	0	0	0
216	1	1	-28.66851751814768	0.1164837920235069	1.2048163011650903	0	0	0
217	1	1	-28.211280158344522	0.45131157016182827	0.3809083234229199	0	0	0
218	1	1	-27.754042798541363	-0.09479977987439442	-0.3210150272086517	0	0	0
219	1	1	-27.296805438738204	0.24002799826392696	-1.144923004950822	0	0	0
220	1	1	-26.839568078935045	-0.30608335177229573	-1.8468463555823937	0	0	0
221	1	1	-26.382330719131886	0.028744426366025644	-2.670754333324564	0	0	0
222	1	1	-25.925093359328727	-0.517366923670197	-3.3726776839561357	0	0	0
223	1	1	-25.467855999525568	-0.1825391455318756	-4.196585661698306	0	0	0
224	1	1	-25.01061863972241	-0.7286504955680984	-4.898509012329877	0	0	0
225	1	1	-25.695003178154565	-1.2169255795456397	-5.439993311198952	0	0	0
226	1	1	-26.37938771658672	-1.3690420568706334	-6.1530700117587465	0	0	0
227	1	1	-27.063772255018876	-2.062642833064701	-6.3778716283409995	0	0	0
228	1	1	-27.74815679345103	-2.2147593103896948	-7.090948328900794	0	0	0
229	1	1	-28.432541331883186	-2.9083600865837624	-7.315749945483047	0	0	0
230	1	1	-29.11692587031534	-3.060476563908756	-8.028826646042841	0	0	0
231	1	1	-29.801310408747497	-3.754077340102824	-8.253628262625094	0	0	0
232	1	1	-30.485694947179653	-3.9061938174278175	-8.966704963184888	0	0	0
233	1	1	-31.170079485611808	-4.599794593621885	-9.191506579767141	0	0	0
234	1	1	-31.854464024043963	-4.751911070946879	-9.904583280326936	0	0	0
235	1	1	-32.53884856247612	-5.4455118471409465	-10.129384896909189	0	0	0
236	1	1	-33.223233100908274	-5.597628324465941	-10.842461597468983	0	0	0
237	1	1	-33.90761763934043	-6.291229100660008	-11.067263214051236	0	0	0
238	1	1	-34.592002177772585	-6.443345577985002	-11.78033991461103	0	0	0
239	1	1	-35.27638671620474	-7.136946354179069	-12.005141531193283	0	0	0
240	1	1	-35.960771254636896	-7.289062831504063	-12.718218231753077	0	0	0
241	1	1	-36.64515579306905	-7.9826636076981305	-12.94301984833533	0	0	0
242	1	1	-37.32954033150121	-8.134780085023124	-13.656096548895125	0	0	0
243	1	1	-38.01392486993336	-8.828380861217191	-13.880898165477378	0	0	0
244	1	1	-38.69830940836552	-8.980497338542184	-14.593974866037172	0	0	0
245	1	1	-39.38269394679767	-9.674098114736251	-14.818776482619425	0	0	0
246	1	1	-40.06707848522983	-9.826214592061245	-15.53185318317922	0	0	0
247	1	1	-24.398761572839536	-1.388399064682925	-4.462203207582302	0	0	0
248	1	1	-23.786904505956663	-2.177910988020585	-4.414225581409703	0	0	0
249	1	1	-23.17504743907379	-2.5311171066106706	-3.7064993861222773	0	0	0
250	1	1	-22.563190372190917	-3.3206290299483308	-3.6585217599496773	0	0	0
251	1	1	-21.951333305308044	-3.673835148538416	-2.9507955646622515	0	0	0
252	1	1	-21.33947623842517	-4.463347071876076	-2.9028179384896515	0	0	0
253	1	1	-20.727619171542297	-4.816553190466162	-2.1950917432022257	0	0	0
254	1	1	-20.115762104659424	-5.6060651138038216	-2.1471141170296257	0	0	0
255	1	1	-19.50390503777655	-5.959271232393907	-1.4393879217422	0	0	0
256	1	1	-18.892047970893678	-6.748783155731567	-1.3914102955696002	0	0	0
257	1	1	-18.280190904010805	-7.101989274321652	-0.6836841002821745	0	0	0
258	1	1	-17.668333837127932	-7.891501197659312	-0.6357064741095746	0	0	0
259	1	1	-17.05647677024506	-8.244707316249396	0.07201972117785105	0	0	0
260	1	1	-16.444619703362186	-9.034219239587056	0.11999734735045095	0	0	0
261	1	1	-15.832762636479314	-9.387425358177142	0.8277235426378766	0	0	0
262	1	1	-15.220905569596443	-10.176937281514801	0.8757011688104765	0	0	0
263	1	1	-14.609048502713572	-10.530143400104887	1.5834273640979022	0	0	0
264	1	1	-13.9971914358307	-11.319655323442547	1.6314049902705021	0	0	0
265	1	1	-13.385334368947829	-11.672861442032632	2.3391311855579278	0	0	0
266	1	1	-12.773477302064958	-12.462373365370292	2.3871088117305277	0	0	0
267	1	1	-12.161620235182086	-12.815579483960377	3.094835007017953	0	0	0
268	1	1	-11.549763168299215	-13.605091407298037	3.142812633190553	0	0	0
269	1	1	-24.480204267172425	-0.12751398611824705	-5.4962510054998885	0	0	0
270	1	1	-23.94978989462244	0.6919564987926333	-5.713342501768937	0	0	0
271	1	1	-23.419375522072457	0.9136849905335029	-6.531570507487837	0	0	0
272	1	1	-22.888961149522473	1.7331554754443834	-6.748662003756886	0	0	0
273	1	1	-22.35854677697249	1.954883967185253	-7.5668900094757845	0	0	0
274	1	1	-21.828132404422504	2.774354452096133	-7.783981505744833	0	0	0
275	1	1	-21.29771803187252	2.9960829438370027	-8.602209511463732	0	0	0
276	1	1	-20.767303659322536	3.815553428747883	-8.819301007732781	0	0	0
277	1	1	-20.236889286772552	4.037281920488753	-9.63752901345168	0	0	0
278	1	1	-19.706474914222568	4.856752405399633	-9.854620509720728	0	0	0
279	1	1	-19.176060541672584	5.078480897140503	-10.672848515439627	0	0	0
280	1	1	-18.6456461691226	5.897951382051383	-10.889940011708676	0	0	0
281	1	1	-18.115231796572616	6.119679873792253	-11.708168017427575	0	0	0
282	1	1	-17.58481742402263	6.939150358703134	-11.925259513696624	0	0	0
283	1	1	-17.054403051472647	7.1608788504440035	-12.743487519415522	0	0	0
284	1	1	-16.523988678922663	7.980349335354884	-12.960579015684571	0	0	0
285	1	1	-15.99357430637268	8.202077827095753	-13.77880702140347	0	0	0
286	1	1	-15.463159933822698	9.021548312006633	-13.995898517672519	0	0	0
287	1	1	-14.932745561272716	9.243276803747502	-14.814126523391417	0	0	0
288	1	1	-14.402331188722734	10.062747288658382	-15.031218019660466	0	0	0
289	1	1	-13.871916816172751	10.284475780399251	-15.849446025379365	0	0	0
290	1	1	-13.341502443622769	11.103946265310132	-16.066537521648414	0	0	0
291	1	1	-12.811088071072787	11.325674757051	-16.884765527367314	0	0	0
292	1	1	-12.054108758584483	11.930748879619054	-16.638051874191742	0	0	0
293	1	1	-11.29712944609618	12.331401614347781	-16.121854521797207	0	0	0
294	1	1	-10.540150133607877	12.978768002252082	-16.210731291970724	0	0	0
295	1	1	-9.783170821119574	13.379420736980808	-15.694533939576187	0	0	0
296	1	1	-9.026191508631271	14.026787124885109	-15.783410709749704	0	0	0
297	1	1	-8.269212196142968	14.427439859613836	-15.267213357355168	0	0	0
298	1	1	-7.512232883654665	15.074806247518136	-15.356090127528685	0	0	0
299	1	1	-6.755253571166362	15.475458982246863	-14.839892775134148	0	0	0
300	1	1	-5.998274258678059	16.122825370151162	-14.928769545307665	0	0	0
301	1	1	-5.241294946189756	16.52347810487989	-14.412572192913128	0	0	0
302	1	1	-4.484315633701453	17.170844492784187	-14.501448963086645	0	0	0
303	1	1	-3.72733632121315	17.571497227512914	-13.985251610692108	0	0	0
304	1	1	-2.9703570087248474	18.218863615417213	-14.074128380865625	0	0	0
305	1	1	-2.213377696236545	18.61951635014594	-13.557931028471089	0	0	0
306	1	1	-1.4563983837482422	19.26688273805024	-13.646807798644605	0	0	0
307	1	1	-0.6994190712599395	19.667535472778965	-13.130610446250069	0	0	0
308	1	1	0.05756024122836312	20.314901860683264	-13.219487216423586	0	0	0
309	1	1	0.8145395537166658	20.71555459541199	-12.703289864029049	0	0	0
310	1	1	1.5715188662049684	21.36292098331629	-12.792166634202566	0	0	0
311	1	1	2.328498178693271	21.763573718045016	-12.27596928180803	0	0	0
312	1	1	3.0854774911815737	22.410940105949315	-12.364846051981546	0	0	0
313	1	1	3.8424568036698763	22.811592840678042	-11.84864869958701	0	0	0
314	1	1	-13.400127666053391	11.78388818581495	-17.550402672699114	0	0	0
315	1	1	-13.989167261033996	12.513531228145602	-17.897754635877035	0	0	0
316	1	1	-14.578206856014601	12.577537125144453	-18.703320027818904	0	0	0
317	1	1	-15.167246450995206	13.307180167475105	-19.050671990996825	0	0	0
318	1	1	-15.756286045975811	13.371186064473955	-19.856237382938694	0	0	0
319	1	1	-16.345325640956418	14.100829106804607	-20.203589346116615	0	0	0
320	1	1	-16.934365235937022	14.164835003803457	-21.009154738058484	0	0	0
321	1	1	-17.523404830917627	14.89447804613411	-21.356506701236405	0	0	0
322	1	1	-18.112444425898232	14.95848394313296	-22.162072093178274	0	0	0
323	1	1	-18.701484020878837	15.688126985463612	-22.509424056356195	0	0	0
324	1	1	-19.290523615859442	15.752132882462462	-23.314989448298064	0	0	0
325	1	1	-19.879563210840047	16.481775924793112	-23.662341411475985	0	0	0
326	1	1	-20.46860280582065	16.545781821791962	-24.467906803417854	0	0	0
327	1	1	-21.057642400801257	17.275424864122613	-24.815258766595775	0	0	0
328	1	1	-21.64668199578186	17.339430761121463	-25.620824158537644	0	0	0
329	1	1	-22.235721590762466	18.069073803452113	-25.968176121715565	0	0	0
330	1	1	-22.82476118574307	18.133079700450963	-26.773741513657434	0	0	0
331	1	1	-23.413800780723676	18.862722742781614	-27.121093476835355	0	0	0
332	1	1	-24.00284037570428	18.926728639780464	-27.926658868777224	0	0	0
333	1	1	-24.591879970684886	19.656371682111114	-28.274010831955145	0	0	0
334	1	1	-25.18091956566549	19.720377579109964	-29.079576223897014	0	0	0
335	1	1	-25.769959160646096	20.450020621440615	-29.426928187074935	0	0	0
336	1	1	-12.4478599212004	10.484430680010979	-17.2852323973895	0	0	0
337	1	1	-12.084631771328015	9.95612537352222	-18.052668918722762	0	0	0
338	1	1	-11.721403621455629	9.027353197011275	-17.978861363016005	0	0	0
339	1	1	-11.358175471583243	8.499047890522515	-18.746297884349268	0	0	0
340	1	1	-10.994947321710857	7.57027571401157	-18.67249032864251	0	0	0
341	1	1	-10.631719171838471	7.04197040752281	-19.439926849975773	0	0	0
342	1	1	-10.268491021966085	6.113198231011865	-19.366119294269016	0	0	0
343	1	1	-9.905262872093699	5.584892924523105	-20.13355581560228	0	0	0
344	1	1	-9.542034722221313	4.65612074801216	-20.05974825989552	0	0	0
345	1	1	-9.178806572348927	4.1278154415234	-20.827184781228784	0	0	0
346	1	1	-8.815578422476541	3.199043265012455	-20.753377225522026	0	0	0
347	1	1	-8.452350272604155	2.670737958523695	-21.52081374685529	0	0	0
348	1	1	-8.08912212273177	1.7419657820127503	-21.44700619114853	0	0	0
349	1	1	-7.725893972859383	1.2136604755239901	-22.214442712481794	0	0	0
350	1	1	-7.3626658229869975	0.28488829901304547	-22.140635156775037	0	0	0
351	1	1	-6.9994376731146115	-0.2434170074757147	-22.9080716781083	0	0	0
352	1	1	-6.636209523242226	-1.1721891839866594	-22.834264122401542	0	0	0
353	1	1	-6.27298137336984	-1.7004944904754196	-23.601700643734805	0	0	0
354	1	1	-5.909753223497454	-2.6292666669863642	-23.527893088028048	0	0	0
355	1	1	-5.546525073625068	-3.1575719734751244	-24.29532960936131	0	0	0
356	1	1	-5.183296923752682	-4.086344149986069	-24.221522053654553	0	0	0
357	1	1	-4.820068773880296	-4.6146494564748295	-24.988958574987816	0	0	0
358	1	1	-4.45684062400791	-5.543421632985774	-24.91515101928106	0	0	0
359	1	1	-3.8250936268538966	-5.5942932653674315	-24.141647426137684	0	0	0
360	1	1	-3.1933466296998834	-6.025101187913617	-23.497209480747806	0	0	0
361	1	1	-2.56159963254587	-5.682405517316428	-22.80189990297627	0	0	0
362	1	1	-1.9298526353918568	-6.113213439862614	-22.157461957586392	0	0	0
363	1	1	-1.2981056382378435	-5.770517769265425	-21.462152379814857	0	0	0
364	1	1	-0.6663586410838301	-6.20132569181161	-20.81771443442498	0	0	0
365	1	1	-0.03461164392981675	-5.858630021214421	-20.122404856653443	0	0	0
366	1	1	0.5971353532241966	-6.289437943760607	-19.477966911263564	0	0	0
367	1	1	1.22888235037821	-5.946742273163418	-18.78265733349203	0	0	0
368	1	1	1.8606293475322233	-6.3775501957096035	-18.13821938810215	0	0	0
369	1	1	2.4923763446862366	-6.034854525112414	-17.442909810330615	0	0	0
370	1	1	3.12412334184025	-6.4656624476586	-16.798471864940737	0	0	0
371	1	1	3.755870338994263	-6.122966777061411	-16.1031622871692	0	0	0
372	1	1	4.387617336148277	-6.5537746996075965	-15.458724341779323	0	0	0
373	1	1	5.01936433330229	-6.211079029010407	-14.763414764007788	0	0	0
374	1	1	5.651111330456303	-6.641886951556593	-14.11897681861791	0	0	0
375	1	1	6.282858327610317	-6.299191280959404	-13.423667240846374	0	0	0
376	1	1	6.91460532476433	-6.7299992035055896	-12.779229295456496	0	0	0
377	1	1	7.546352321918343	-6.3873035329084	-12.08391971768496	0	0	0
378	1	1	8.178099319072357	-6.818111455454586	-11.439481772295082	0	0	0
379	1	1	8.809846316226372	-6.475415784857397	-10.744172194523546	0	0	0
380	1	1	9.441593313380386	-6.906223707403583	-10.099734249133668	0	0	0
381	1	1	-3.9719336141848256	-5.780095368684489	-25.757083756888317	0	0	0
382	1	1	-3.4870266043617413	-5.564094467404512	-26.60455576378334	0	0	0
383	1	1	-3.002119594538657	-6.190026303731792	-27.215354034979644	0	0	0
384	1	1	-2.5172125847155726	-5.974025402451815	-28.062826041874665	0	0	0
385	1	1	-2.0323055748924883	-6.599957238779095	-28.67362431307097	0	0	0
386	1	1	-1.5473985650694042	-6.383956337499118	-29.52109631996599	0	0	0
387	1	1	-1.0624915552463199	-7.009888173826398	-30.131894591162297	0	0	0
388	1	1	-0.5775845454232358	-6.793887272546421	-30.979366598057318	0	0	0
389	1	1	-0.09267753560015152	-7.419819108873701	-31.590164869253623	0	0	0
390	1	1	0.39222947422293264	-7.203818207593724	-32.437636876148645	0	0	0
391	1	1	0.877136484046017	-7.8297500439210035	-33.04843514734495	0	0	0
392	1	1	1.362043493869101	-7.613749142641026	-33.895907154239964	0	0	0
393	1	1	1.8469505036921854	-8.239680978968305	-34.506705425436266	0	0	0
394	1	1	2.3318575135152697	-8.023680077688327	-35.354177432331284	0	0	0
395	1	1	2.816764523338354	-8.649611914015606	-35.964975703527585	0	0	0
396	1	1	3.3016715331614384	-8.433611012735629	-36.8124477104226	0	0	0
397	1	1	3.7865785429845227	-9.059542849062908	-37.423245981618905	0	0	0
398	1	1	4.271485552807607	-8.84354194778293	-38.27071798851392	0	0	0
399	1	1	4.756392562630691	-9.469473784110209	-38.881516259710224	0	0	0
400	1	1	5.241299572453776	-9.25347288283023	-39.72898826660524	0	0	0
401	1	1	5.72620658227686	-9.87940471915751	-40.339786537801544	0	0	0
402	1	1	6.211113592099944	-9.663403817877532	-41.18725854469656	0	0	0
403	1	1	-5.209750487302424	-6.185967834459898	-24.772809469742594	0	0	0
404	1	1	-5.962660350596938	-6.8135999428109155	-24.970811172565305	0	0	0
405	1	1	-6.715570213891452	-7.298890501623468	-24.52626667391389	0	0	0
406	1	1	-7.468480077185966	-7.926522609974485	-24.724268376736603	0	0	0
407	1	1	-8.22138994048048	-8.411813168787038	-24.27972387808519	0	0	0
408	1	1	-8.974299803774993	-9.039445277138055	-24.4777255809079	0	0	0
409	1	1	-9.727209667069507	-9.524735835950608	-24.033181082256487	0	0	0
410	1	1	-10.480119530364021	-10.152367944301625	-24.2311827850792	0	0	0
411	1	1	-11.233029393658535	-10.637658503114178	-23.786638286427785	0	0	0
412	1	1	-11.98593925695305	-11.265290611465195	-23.984639989250496	0	0	0
413	1	1	-12.738849120247563	-11.750581170277748	-23.540095490599082	0	0	0
414	1	1	-13.491758983542077	-12.378213278628765	-23.738097193421794	0	0	0
415	1	1	-14.244668846836591	-12.863503837441318	-23.29355269477038	0	0	0
416	1	1	-14.997578710131105	-13.491135945792335	-23.49155439759309	0	0	0
417	1	1	-15.750488573425619	-13.976426504604888	-23.047009898941678	0	0	0
418	1	1	-16.503398436720133	-14.604058612955905	-23.24501160176439	0	0	0
419	1	1	-17.25630830001465	-15.089349171768458	-22.800467103112975	0	0	0
420	1	1	-18.009218163309164	-15.716981280119475	-22.998468805935687	0	0	0
421	1	1	-18.76212802660368	-16.202271838932027	-22.553924307284273	0	0	0
422	1	1	-19.515037889898196	-16.829903947283047	-22.751926010106985	0	0	0
423	1	1	-20.26794775319271	-17.3151945060956	-22.30738151145557	0	0	0
424	1	1	-21.020857616487227	-17.94282661444662	-22.505383214278282	0	0	0
425	1	1	-21.773767479781743	-18.428117173259174	-22.06083871562687	0	0	0
426	1	1	-21.60506878434353	-18.475846630518724	-21.076327339833192	0	0	0