bb218nuc7bl27bn4d30tot600V2

595 atoms
594 bonds
614 angles

1 atom types
1 bond types
1 angle types

-1000 1000 xlo xhi
-1000 1000 ylo yhi
-1000 1000 zlo zhi

Masses

1 1

Atoms

1	1	1	0.0	0.0	0.0	0	0	0
2	1	1	0.0	0.0	1.0	0	0	0
3	1	1	0.0	-0.49999999999999994	1.8660254037844388	0	0	0
4	1	1	0.0	0.0	2.7320508075688776	0	0	0
5	1	1	0.0	-0.49999999999999994	3.5980762113533165	0	0	0
6	1	1	0.0	0.0	4.464101615137755	0	0	0
7	1	1	0.0	-0.49999999999999994	5.330127018922194	0	0	0
8	1	1	0.0	0.0	6.196152422706632	0	0	0
9	1	1	0.0	-0.49999999999999994	7.06217782649107	0	0	0
10	1	1	0.0	0.0	7.928203230275509	0	0	0
11	1	1	0.0	-0.49999999999999994	8.794228634059948	0	0	0
12	1	1	0.0	0.0	9.660254037844387	0	0	0
13	1	1	0.0	-0.49999999999999994	10.526279441628827	0	0	0
14	1	1	0.0	0.0	11.392304845413266	0	0	0
15	1	1	0.0	-0.49999999999999994	12.258330249197705	0	0	0
16	1	1	0.0	0.0	13.124355652982144	0	0	0
17	1	1	0.0	-0.49999999999999994	13.990381056766584	0	0	0
18	1	1	0.0	0.0	14.856406460551023	0	0	0
19	1	1	0.0	-0.49999999999999994	15.722431864335462	0	0	0
20	1	1	0.0	0.0	16.5884572681199	0	0	0
21	1	1	0.0	-0.49999999999999994	17.454482671904337	0	0	0
22	1	1	0.0	0.0	18.320508075688775	0	0	0
23	1	1	0.0	-0.49999999999999994	19.186533479473212	0	0	0
24	1	1	0.0	0.0	20.05255888325765	0	0	0
25	1	1	0.0	-0.49999999999999994	20.918584287042087	0	0	0
26	1	1	0.0	0.0	21.784609690826525	0	0	0
27	1	1	0.0	-0.49999999999999994	22.650635094610962	0	0	0
28	1	1	0.0	0.0	23.5166604983954	0	0	0
29	1	1	0.9245776601261906	0.007853599868323695	23.897573180469237	0	0	0
30	1	1	1.849155320252382	-0.17580132417146893	24.23138003970301	0	0	0
31	1	1	2.7737329803785737	0.02145643386257659	24.557333299068457	0	0	0
32	1	1	3.698310640504765	-0.16219849017721605	24.89114015830223	0	0	0
33	1	1	4.622888300630956	0.035059267856829474	25.217093417667677	0	0	0
34	1	1	5.5474659607571475	-0.14859565618296317	25.550900276901448	0	0	0
35	1	1	6.472043620883339	0.04866210185108236	25.876853536266896	0	0	0
36	1	1	7.39662128100953	-0.13499282218871028	26.210660395500668	0	0	0
37	1	1	8.321198941135721	0.06226493584533524	26.536613654866116	0	0	0
38	1	1	9.245776601261912	-0.1213899881944574	26.870420514099887	0	0	0
39	1	1	10.170354261388104	0.07586776983958812	27.196373773465336	0	0	0
40	1	1	11.094931921514295	-0.10778715420020452	27.530180632699107	0	0	0
41	1	1	12.019509581640486	0.089470603833841	27.856133892064555	0	0	0
42	1	1	12.944087241766677	-0.09418432020595163	28.189940751298327	0	0	0
43	1	1	13.868664901892869	0.10307343782809389	28.515894010663775	0	0	0
44	1	1	14.79324256201906	-0.08058148621169875	28.849700869897546	0	0	0
45	1	1	15.717820222145251	0.11667627182234677	29.175654129262995	0	0	0
46	1	1	16.642397882271442	-0.06697865221744587	29.509460988496766	0	0	0
47	1	1	17.566975542397635	0.13027910581659966	29.835414247862214	0	0	0
48	1	1	18.49155320252383	-0.05337581822319298	30.169221107095986	0	0	0
49	1	1	19.41613086265002	0.14388193981085254	30.495174366461434	0	0	0
50	1	1	20.340708522776215	-0.0397729842289401	30.828981225695205	0	0	0
51	1	1	21.265286182902408	0.15748477380510542	31.154934485060654	0	0	0
52	1	1	22.1898638430286	-0.026170150234687217	31.488741344294425	0	0	0
53	1	1	23.114441503154794	0.1710876077993583	31.814694603659873	0	0	0
54	1	1	24.039019163280987	-0.012567316240434334	32.14850146289364	0	0	0
55	1	1	24.96359682340718	0.1846904417936112	32.47445472225909	0	0	0
56	1	1	-0.6213386598116554	-0.44700490060347775	24.16018585815982	0	0	0
57	1	1	-1.2426773196233114	-1.1558851800244392	24.493992717393592	0	0	0
58	1	1	-1.8640159794349676	-1.221240099680978	25.27480447723084	0	0	0
59	1	1	-2.4853546392466237	-1.9301203791019395	25.608611336464612	0	0	0
60	1	1	-3.10669329905828	-1.9954752987584783	26.38942309630186	0	0	0
61	1	1	-3.728031958869936	-2.70435557817944	26.723229955535633	0	0	0
62	1	1	-4.349370618681592	-2.7697104978359786	27.504041715372882	0	0	0
63	1	1	-4.970709278493247	-3.47859077725694	27.837848574606653	0	0	0
64	1	1	-5.592047938304903	-3.543945696913479	28.618660334443902	0	0	0
65	1	1	-6.213386598116559	-4.2528259763344405	28.952467193677673	0	0	0
66	1	1	-6.8347252579282145	-4.318180895990979	29.733278953514922	0	0	0
67	1	1	-7.45606391773987	-5.027061175411941	30.067085812748694	0	0	0
68	1	1	-8.077402577551526	-5.092416095068479	30.847897572585943	0	0	0
69	1	1	-8.698741237363182	-5.801296374489441	31.181704431819714	0	0	0
70	1	1	-9.320079897174837	-5.86665129414598	31.962516191656963	0	0	0
71	1	1	-9.941418556986493	-6.575531573566941	32.296323050890734	0	0	0
72	1	1	-10.562757216798149	-6.64088649322348	33.07713481072798	0	0	0
73	1	1	-11.184095876609804	-7.349766772644442	33.41094166996176	0	0	0
74	1	1	-11.80543453642146	-7.41512169230098	34.19175342979901	0	0	0
75	1	1	-12.426773196233116	-8.124001971721942	34.52556028903278	0	0	0
76	1	1	-13.048111856044772	-8.18935689137848	35.30637204887003	0	0	0
77	1	1	-13.669450515856427	-8.898237170799442	35.640178908103806	0	0	0
78	1	1	-14.290789175668083	-8.96359209045598	36.420990667941055	0	0	0
79	1	1	-14.912127835479739	-9.672472369876942	36.75479752717483	0	0	0
80	1	1	-15.533466495291394	-9.737827289533481	37.53560928701208	0	0	0
81	1	1	-16.154805155103052	-10.446707568954443	37.869416146245854	0	0	0
82	1	1	-16.776143814914708	-10.512062488610981	38.6502279060831	0	0	0
83	1	1	-0.30323900031453793	0.9398615895858078	23.359478116718964	0	0	0
84	1	1	-0.6064780006290762	1.8323967930465594	23.693284975952736	0	0	0
85	1	1	-0.9097170009436144	2.5677496148308765	23.087230245600697	0	0	0
86	1	1	-1.2129560012581526	3.460284818291628	23.42103710483447	0	0	0
87	1	1	-1.5161950015726908	4.195637640075945	22.81498237448243	0	0	0
88	1	1	-1.819434001887229	5.088172843536697	23.1487892337162	0	0	0
89	1	1	-2.1226730022017675	5.8235256653210135	22.542734503364162	0	0	0
90	1	1	-2.4259120025163057	6.716060868781765	22.876541362597933	0	0	0
91	1	1	-2.729151002830844	7.451413690566082	22.270486632245895	0	0	0
92	1	1	-3.032390003145382	8.343948894026834	22.604293491479666	0	0	0
93	1	1	-3.3356290034599203	9.079301715811152	21.998238761127627	0	0	0
94	1	1	-3.6388680037744585	9.971836919271903	22.3320456203614	0	0	0
95	1	1	-3.9421070040889967	10.70718974105622	21.72599089000936	0	0	0
96	1	1	-4.245346004403535	11.599724944516971	22.05979774924313	0	0	0
97	1	1	-4.548585004718073	12.33507776630129	21.453743018891092	0	0	0
98	1	1	-4.851824005032611	13.22761296976204	21.787549878124864	0	0	0
99	1	1	-5.15506300534715	13.962965791546358	21.181495147772825	0	0	0
100	1	1	-5.458302005661688	14.855500995007109	21.515302007006596	0	0	0
101	1	1	-5.761541005976226	15.590853816791427	20.909247276654558	0	0	0
102	1	1	-6.064780006290764	16.48338902025218	21.24305413588833	0	0	0
103	1	1	-6.368019006605302	17.218741842036497	20.63699940553629	0	0	0
104	1	1	-6.671258006919841	18.11127704549725	20.97080626477006	0	0	0
105	1	1	-6.974497007234379	18.846629867281568	20.364751534418023	0	0	0
106	1	1	-7.277736007548917	19.73916507074232	20.698558393651794	0	0	0
107	1	1	-7.580975007863455	20.474517892526638	20.092503663299755	0	0	0
108	1	1	-7.8842140081779934	21.36705309598739	20.426310522533527	0	0	0
109	1	1	-8.187453008492533	22.10240591777171	19.820255792181488	0	0	0
110	1	1	-8.127259452376467	21.797748915516458	18.86969761575095	0	0	0
111	1	1	-8.067065896260402	22.009187300337864	17.89416158605947	0	0	0
112	1	1	-8.006872340144337	21.270067508728737	17.223282558623243	0	0	0
113	1	1	-7.946678784028273	21.481505893550143	16.247746528931764	0	0	0
114	1	1	-7.886485227912209	20.742386101941015	15.576867501495535	0	0	0
115	1	1	-7.826291671796144	20.95382448676242	14.601331471804055	0	0	0
116	1	1	-7.76609811568008	20.214704695153294	13.930452444367827	0	0	0
117	1	1	-7.705904559564016	20.4261430799747	12.954916414676347	0	0	0
118	1	1	-7.645711003447952	19.687023288365573	12.284037387240119	0	0	0
119	1	1	-7.585517447331887	19.89846167318698	11.30850135754864	0	0	0
120	1	1	-7.525323891215823	19.159341881577852	10.63762233011241	0	0	0
121	1	1	-7.465130335099759	19.370780266399258	9.662086300420931	0	0	0
122	1	1	-7.404936778983695	18.63166047479013	8.991207272984703	0	0	0
123	1	1	-7.34474322286763	18.843098859611537	8.015671243293223	0	0	0
124	1	1	-7.284549666751566	18.10397906800241	7.344792215856994	0	0	0
125	1	1	-7.224356110635502	18.315417452823816	6.369256186165513	0	0	0
126	1	1	-7.164162554519438	17.57629766121469	5.698377158729284	0	0	0
127	1	1	-7.103968998403373	17.787736046036095	4.722841129037803	0	0	0
128	1	1	-7.043775442287309	17.048616254426967	4.051962101601574	0	0	0
129	1	1	-6.983581886171245	17.260054639248374	3.0764260719100935	0	0	0
130	1	1	-6.923388330055181	16.520934847639246	2.405547044473864	0	0	0
131	1	1	-6.863194773939116	16.732373232460652	1.4300110147823837	0	0	0
132	1	1	-6.803001217823052	15.993253440851523	0.7591319873461544	0	0	0
133	1	1	-6.742807661706988	16.20469182567293	-0.21640404234532595	0	0	0
134	1	1	-6.682614105590924	15.465572034063802	-0.8872830697815552	0	0	0
135	1	1	-6.622420549474859	15.67701041888521	-1.8628190994730356	0	0	0
136	1	1	-6.562226993358795	14.937890627276081	-2.5336981269092647	0	0	0
137	1	1	-7.60413478859406	22.9041548878987	19.950403566787084	0	0	0
138	1	1	-7.0208165686955875	23.533415976183885	20.463989330905036	0	0	0
139	1	1	-6.437498348797115	24.29282483907467	20.175826124896	0	0	0
140	1	1	-5.854180128898643	24.922085927359856	20.68941188901395	0	0	0
141	1	1	-5.270861909000171	25.68149479025064	20.401248683004912	0	0	0
142	1	1	-4.687543689101699	26.310755878535826	20.914834447122864	0	0	0
143	1	1	-4.104225469203227	27.07016474142661	20.626671241113826	0	0	0
144	1	1	-3.520907249304755	27.699425829711796	21.140257005231778	0	0	0
145	1	1	-2.9375890294062827	28.45883469260258	20.85209379922274	0	0	0
146	1	1	-2.3542708095078106	29.088095780887766	21.36567956334069	0	0	0
147	1	1	-1.7709525896093385	29.84750464377855	21.077516357331653	0	0	0
148	1	1	-1.1876343697108664	30.476765732063736	21.591102121449605	0	0	0
149	1	1	-0.6043161498123942	31.23617459495452	21.302938915440567	0	0	0
150	1	1	-0.02099792991392202	31.865435683239706	21.81652467955852	0	0	0
151	1	1	0.5623202899845502	32.62484454613049	21.52836147354948	0	0	0
152	1	1	1.1456385098830224	33.25410563441568	22.041947237667433	0	0	0
153	1	1	1.7289567297814945	34.01351449730646	21.753784031658395	0	0	0
154	1	1	2.3122749496799666	34.64277558559165	22.267369795776347	0	0	0
155	1	1	2.8955931695784387	35.40218444848243	21.97920658976731	0	0	0
156	1	1	3.478911389476911	36.03144553676762	22.49279235388526	0	0	0
157	1	1	4.062229609375383	36.7908543996584	22.204629147876222	0	0	0
158	1	1	4.6455478292738555	37.42011548794359	22.718214911994174	0	0	0
159	1	1	5.228866049172328	38.17952435083437	22.430051705985136	0	0	0
160	1	1	5.8121842690708	38.80878543911956	22.943637470103088	0	0	0
161	1	1	6.395502488969272	39.56819430201034	22.65547426409405	0	0	0
162	1	1	6.978820708867744	40.19745539029553	23.169060028212	0	0	0
163	1	1	7.562138928766216	40.95686425318631	22.880896822202963	0	0	0
164	1	1	-9.134634559383626	22.34171139750551	20.033750515818674	0	0	0
165	1	1	-10.081816110274719	22.44220866040121	20.33829510992932	0	0	0
166	1	1	-11.028997661165812	22.756200646934097	20.40353422430616	0	0	0
167	1	1	-11.976179212056905	22.856697909829798	20.708078818416805	0	0	0
168	1	1	-12.923360762947999	23.170689896362685	20.773317932793645	0	0	0
169	1	1	-13.870542313839092	23.271187159258385	21.07786252690429	0	0	0
170	1	1	-14.817723864730185	23.585179145791273	21.14310164128113	0	0	0
171	1	1	-15.764905415621278	23.685676408686973	21.447646235391776	0	0	0
172	1	1	-16.71208696651237	23.99966839521986	21.512885349768617	0	0	0
173	1	1	-17.65926851740346	24.10016565811556	21.81742994387926	0	0	0
174	1	1	-18.606450068294553	24.414157644648448	21.882669058256102	0	0	0
175	1	1	-19.553631619185644	24.51465490754415	22.187213652366747	0	0	0
176	1	1	-20.500813170076736	24.828646894077036	22.252452766743588	0	0	0
177	1	1	-21.447994720967827	24.929144156972736	22.556997360854233	0	0	0
178	1	1	-22.39517627185892	25.243136143505623	22.622236475231073	0	0	0
179	1	1	-23.34235782275001	25.343633406401324	22.926781069341718	0	0	0
180	1	1	-24.2895393736411	25.65762539293421	22.99202018371856	0	0	0
181	1	1	-25.236720924532193	25.75812265582991	23.296564777829204	0	0	0
182	1	1	-26.183902475423285	26.0721146423628	23.361803892206044	0	0	0
183	1	1	-27.131084026314376	26.1726119052585	23.66634848631669	0	0	0
184	1	1	-28.078265577205467	26.486603891791386	23.73158760069353	0	0	0
185	1	1	-29.02544712809656	26.587101154687087	24.036132194804175	0	0	0
186	1	1	-29.97262867898765	26.901093141219974	24.101371309181015	0	0	0
187	1	1	-30.919810229878742	27.001590404115674	24.40591590329166	0	0	0
188	1	1	-31.866991780769833	27.31558239064856	24.4711550176685	0	0	0
189	1	1	-32.814173331660925	27.416079653544262	24.775699611779146	0	0	0
190	1	1	-33.76135488255202	27.73007164007715	24.840938726155986	0	0	0
191	1	1	-34.29333938474074	27.3451038436201	24.08675553546421	0	0	0
192	1	1	-34.82532388692946	27.38880354759527	23.241129834989405	0	0	0
193	1	1	-35.35730838911818	26.67832006087866	22.780471930971647	0	0	0
194	1	1	-35.8892928913069	26.72201976485383	21.93484623049684	0	0	0
195	1	1	-36.42127739349562	26.01153627813722	21.474188326479084	0	0	0
196	1	1	-36.95326189568434	26.05523598211239	20.62856262600428	0	0	0
197	1	1	-37.48524639787306	25.34475249539578	20.16790472198652	0	0	0
198	1	1	-38.01723090006178	25.38845219937095	19.322279021511715	0	0	0
199	1	1	-38.5492154022505	24.67796871265434	18.861621117493957	0	0	0
200	1	1	-39.081199904439224	24.72166841662951	18.015995417019152	0	0	0
201	1	1	-39.613184406627944	24.0111849299129	17.555337513001394	0	0	0
202	1	1	-40.145168908816665	24.05488463388807	16.70971181252659	0	0	0
203	1	1	-40.677153411005385	23.34440114717146	16.24905390850883	0	0	0
204	1	1	-41.209137913194105	23.38810085114663	15.403428208034027	0	0	0
205	1	1	-41.741122415382826	22.67761736443002	14.94277030401627	0	0	0
206	1	1	-42.273106917571546	22.721317068405188	14.097144603541466	0	0	0
207	1	1	-42.80509141976027	22.01083358168858	13.636486699523708	0	0	0
208	1	1	-43.33707592194899	22.054533285663748	12.790860999048904	0	0	0
209	1	1	-43.86906042413771	21.34404979894714	12.330203095031147	0	0	0
210	1	1	-44.40104492632643	21.387749502922308	11.484577394556343	0	0	0
211	1	1	-44.93302942851515	20.6772660162057	11.023919490538585	0	0	0
212	1	1	-45.46501393070387	20.720965720180867	10.178293790063782	0	0	0
213	1	1	-45.99699843289259	20.01048223346426	9.717635886046024	0	0	0
214	1	1	-46.52898293508131	20.054181937439427	8.87201018557122	0	0	0
215	1	1	-47.06096743727003	19.34369845072282	8.411352281553462	0	0	0
216	1	1	-47.59295193945875	19.387398154697987	7.565726581078659	0	0	0
217	1	1	-48.12493644164747	18.67691466798138	7.105068677060901	0	0	0
218	1	1	-33.786295079156815	28.728474870733358	24.790253663183115	0	0	0
219	1	1	-33.81123527576161	29.61845996318852	25.245560726384298	0	0	0
220	1	1	-33.836175472366406	30.457759992670816	24.702464558929275	0	0	0
221	1	1	-33.8611156689712	31.34774508512598	25.157771622130458	0	0	0
222	1	1	-33.886055865576	32.187045114608274	24.614675454675435	0	0	0
223	1	1	-33.91099606218079	33.07703020706344	25.069982517876618	0	0	0
224	1	1	-33.93593625878559	33.91633023654573	24.526886350421595	0	0	0
225	1	1	-33.960876455390384	34.806315329000896	24.982193413622777	0	0	0
226	1	1	-33.98581665199518	35.64561535848319	24.439097246167755	0	0	0
227	1	1	-34.010756848599975	36.535600450938354	24.894404309368937	0	0	0
228	1	1	-34.03569704520477	37.37490048042065	24.351308141913915	0	0	0
229	1	1	-34.060637241809566	38.26488557287581	24.806615205115097	0	0	0
230	1	1	-34.08557743841436	39.10418560235811	24.263519037660075	0	0	0
231	1	1	-34.11051763501916	39.99417069481327	24.718826100861257	0	0	0
232	1	1	-34.13545783162395	40.833470724295566	24.175729933406235	0	0	0
233	1	1	-34.16039802822875	41.72345581675073	24.631036996607417	0	0	0
234	1	1	-34.185338224833544	42.562755846233024	24.087940829152394	0	0	0
235	1	1	-34.21027842143834	43.45274093868819	24.543247892353577	0	0	0
236	1	1	-34.235218618043135	44.29204096817048	24.000151724898554	0	0	0
237	1	1	-34.26015881464793	45.182026060625645	24.455458788099737	0	0	0
238	1	1	-34.285099011252726	46.02132609010794	23.912362620644714	0	0	0
239	1	1	-34.31003920785752	46.911311182563104	24.367669683845897	0	0	0
240	1	1	-34.33497940446232	47.7506112120454	23.824573516390874	0	0	0
241	1	1	-34.35991960106711	48.64059630450056	24.279880579592056	0	0	0
242	1	1	-34.38485979767191	49.47989633398286	23.736784412137034	0	0	0
243	1	1	-34.4097999942767	50.36988142643802	24.192091475338216	0	0	0
244	1	1	-34.4347401908815	51.209181455920316	23.648995307883194	0	0	0
245	1	1	-34.152957279639885	27.43107424242533	25.71113877142861	0	0	0
246	1	1	-34.54455967672775	26.737034877757104	26.315255418183163	0	0	0
247	1	1	-34.936162073815616	26.9131955583615	27.218369462589532	0	0	0
248	1	1	-35.32776447090348	26.219156193693276	27.822486109344084	0	0	0
249	1	1	-35.71936686799135	26.395316874297674	28.725600153750452	0	0	0
250	1	1	-36.11096926507921	25.70127750962945	29.329716800505004	0	0	0
251	1	1	-36.50257166216708	25.877438190233846	30.232830844911373	0	0	0
252	1	1	-36.894174059254944	25.18339882556562	30.836947491665924	0	0	0
253	1	1	-37.28577645634281	25.35955950617002	31.740061536072293	0	0	0
254	1	1	-37.677378853430675	24.665520141501794	32.344178182826845	0	0	0
255	1	1	-38.06898125051854	24.84168082210619	33.24729222723322	0	0	0
256	1	1	-38.460583647606406	24.147641457437967	33.851408873987765	0	0	0
257	1	1	-38.85218604469427	24.323802138042364	34.75452291839414	0	0	0
258	1	1	-39.24378844178214	23.62976277337414	35.358639565148685	0	0	0
259	1	1	-39.63539083887	23.805923453978536	36.26175360955506	0	0	0
260	1	1	-40.02699323595787	23.111884089310312	36.865870256309606	0	0	0
261	1	1	-40.41859563304573	23.28804476991471	37.76898430071598	0	0	0
262	1	1	-40.8101980301336	22.594005405246484	38.373100947470526	0	0	0
263	1	1	-41.201800427221464	22.77016608585088	39.2762149918769	0	0	0
264	1	1	-41.59340282430933	22.076126721182657	39.880331638631446	0	0	0
265	1	1	-41.985005221397195	22.252287401787054	40.78344568303782	0	0	0
266	1	1	-42.37660761848506	21.55824803711883	41.38756232979237	0	0	0
267	1	1	-42.768210015572926	21.734408717723227	42.29067637419874	0	0	0
268	1	1	-43.15981241266079	21.040369353055002	42.89479302095329	0	0	0
269	1	1	-43.55141480974866	21.2165300336594	43.79790706535966	0	0	0
270	1	1	-43.94301720683652	20.522490668991175	44.40202371211421	0	0	0
271	1	1	-44.33461960392439	20.698651349595572	45.30513775652058	0	0	0
272	1	1	-45.12873790746288	20.107377494804627	45.445748384233475	0	0	0
273	1	1	-45.92285621100136	19.52501400210567	45.271883832479446	0	0	0
274	1	1	-46.71697451453984	19.083261137119607	45.68929313551636	0	0	0
275	1	1	-47.511092818078325	18.50089764442065	45.51542858376233	0	0	0
276	1	1	-48.30521112161681	18.059144779434586	45.93283788679924	0	0	0
277	1	1	-49.09932942515529	17.47678128673563	45.75897333504521	0	0	0
278	1	1	-49.89344772869377	17.035028421749566	46.176382638082124	0	0	0
279	1	1	-50.687566032232255	16.45266492905061	46.002518086328095	0	0	0
280	1	1	-51.48168433577074	16.010912064064545	46.41992738936501	0	0	0
281	1	1	-52.27580263930922	15.428548571365589	46.24606283761098	0	0	0
282	1	1	-53.0699209428477	14.986795706379525	46.66347214064789	0	0	0
283	1	1	-53.864039246386184	14.404432213680568	46.48960758889386	0	0	0
284	1	1	-54.65815754992467	13.962679348694504	46.90701689193077	0	0	0
285	1	1	-55.45227585346315	13.380315855995548	46.733152340176744	0	0	0
286	1	1	-56.24639415700163	12.938562991009483	47.150561643213656	0	0	0
287	1	1	-57.040512460540114	12.356199498310527	46.97669709145963	0	0	0
288	1	1	-57.8346307640786	11.914446633324463	47.39410639449654	0	0	0
289	1	1	-58.62874906761708	11.332083140625507	47.22024184274251	0	0	0
290	1	1	-59.42286737115556	10.890330275639442	47.63765114577942	0	0	0
291	1	1	-60.216985674694044	10.307966782940486	47.46378659402539	0	0	0
292	1	1	-61.011103978232526	9.866213917954422	47.881195897062305	0	0	0
293	1	1	-61.80522228177101	9.283850425255466	47.707331345308276	0	0	0
294	1	1	-62.59934058530949	8.842097560269401	48.12474064834519	0	0	0
295	1	1	-63.393458888847974	8.259734067570445	47.95087609659116	0	0	0
296	1	1	-64.18757719238646	7.817981202584382	48.36828539962807	0	0	0
297	1	1	-64.98169549592494	7.2356177098854255	48.19442084787404	0	0	0
298	1	1	-65.77581379946342	6.793864844899362	48.611830150910954	0	0	0
299	1	1	-44.61753823895325	21.655902961335464	45.365357336183564	0	0	0
300	1	1	-44.900456873982115	22.45479738508432	45.89613482784687	0	0	0
301	1	1	-45.18337550901098	23.313911388496155	45.46966070777029	0	0	0
302	1	1	-45.46629414403984	24.11280581224501	46.000438199433596	0	0	0
303	1	1	-45.749212779068706	24.971919815656847	45.57396407935701	0	0	0
304	1	1	-46.03213141409757	25.770814239405702	46.10474157102032	0	0	0
305	1	1	-46.315050049126434	26.629928242817538	45.678267450943736	0	0	0
306	1	1	-46.5979686841553	27.428822666566393	46.20904494260704	0	0	0
307	1	1	-46.88088731918416	28.28793666997823	45.78257082253046	0	0	0
308	1	1	-47.163805954213025	29.086831093727085	46.31334831419377	0	0	0
309	1	1	-47.44672458924189	29.94594509713892	45.88687419411718	0	0	0
310	1	1	-47.72964322427075	30.744839520887776	46.41765168578049	0	0	0
311	1	1	-48.012561859299616	31.603953524299612	45.99117756570391	0	0	0
312	1	1	-48.29548049432848	32.40284794804847	46.521955057367215	0	0	0
313	1	1	-48.578399129357344	33.2619619514603	46.09548093729063	0	0	0
314	1	1	-48.86131776438621	34.060856375209156	46.62625842895394	0	0	0
315	1	1	-49.14423639941507	34.91997037862099	46.199784308877355	0	0	0
316	1	1	-49.427155034443935	35.71886480236984	46.73056180054066	0	0	0
317	1	1	-49.7100736694728	36.577978805781676	46.30408768046408	0	0	0
318	1	1	-49.99299230450166	37.37687322953053	46.83486517212739	0	0	0
319	1	1	-50.275910939530526	38.235987232942364	46.4083910520508	0	0	0
320	1	1	-50.55882957455939	39.03488165669122	46.93916854371411	0	0	0
321	1	1	-50.84174820958825	39.89399566010305	46.51269442363753	0	0	0
322	1	1	-51.12466684461712	40.69289008385191	47.043471915300834	0	0	0
323	1	1	-51.40758547964598	41.55200408726374	46.61699779522425	0	0	0
324	1	1	-51.690504114674845	42.350898511012595	47.14777528688756	0	0	0
325	1	1	-51.97342274970371	43.21001251442443	46.721301166810974	0	0	0
326	1	1	-43.64974136407799	20.509084523185734	46.008704537224304	0	0	0
327	1	1	-42.96486312423159	19.99313144544816	46.52322782936765	0	0	0
328	1	1	-42.27998488438519	20.18074514841431	47.227317947920824	0	0	0
329	1	1	-41.595106644538795	19.664792070676736	47.74184124006417	0	0	0
330	1	1	-40.9102284046924	19.852405773642886	48.445931358617344	0	0	0
331	1	1	-40.225350164846	19.33645269590531	48.96045465076069	0	0	0
332	1	1	-39.5404719249996	19.52406639887146	49.66454476931386	0	0	0
333	1	1	-38.8555936851532	19.008113321133887	50.17906806145721	0	0	0
334	1	1	-38.170715445306804	19.195727024100037	50.88315818001038	0	0	0
335	1	1	-37.485837205460406	18.679773946362463	51.39768147215373	0	0	0
336	1	1	-36.80095896561401	18.867387649328613	52.1017715907069	0	0	0
337	1	1	-36.11608072576761	18.35143457159104	52.61629488285025	0	0	0
338	1	1	-35.43120248592121	18.53904827455719	53.32038500140342	0	0	0
339	1	1	-34.74632424607481	18.023095196819614	53.83490829354677	0	0	0
340	1	1	-34.061446006228415	18.210708899785764	54.53899841209994	0	0	0
341	1	1	-33.37656776638202	17.69475582204819	55.05352170424329	0	0	0
342	1	1	-32.69168952653562	17.88236952501434	55.75761182279646	0	0	0
343	1	1	-32.00681128668922	17.366416447276766	56.27213511493981	0	0	0
344	1	1	-31.321933046842823	17.554030150242916	56.97622523349298	0	0	0
345	1	1	-30.637054806996424	17.03807707250534	57.49074852563633	0	0	0
346	1	1	-29.952176567150026	17.22569077547149	58.1948386441895	0	0	0
347	1	1	-29.267298327303628	16.709737697733917	58.70936193633285	0	0	0
348	1	1	-28.58242008745723	16.897351400700067	59.41345205488602	0	0	0
349	1	1	-27.89754184761083	16.381398322962493	59.92797534702937	0	0	0
350	1	1	-27.212663607764433	16.569012025928643	60.63206546558254	0	0	0
351	1	1	-26.527785367918035	16.05305894819107	61.14658875772589	0	0	0
352	1	1	-25.842907128071637	16.24067265115722	61.85067887627906	0	0	0
353	1	1	-25.027958885655107	16.63584071176343	61.426766661240464	0	0	0
354	1	1	-24.213010643238572	17.190022398531934	61.25723194434561	0	0	0
355	1	1	-23.398062400822038	17.32029187026184	60.69252916684455	0	0	0
356	1	1	-22.583114158405504	17.874473557030345	60.5229944499497	0	0	0
357	1	1	-21.76816591598897	18.004743028760252	59.95829167244864	0	0	0
358	1	1	-20.953217673572436	18.558924715528757	59.78875695555379	0	0	0
359	1	1	-20.1382694311559	18.689194187258664	59.224054178052725	0	0	0
360	1	1	-19.323321188739367	19.24337587402717	59.054519461157874	0	0	0
361	1	1	-18.508372946322833	19.373645345757076	58.48981668365681	0	0	0
362	1	1	-17.6934247039063	19.92782703252558	58.32028196676196	0	0	0
363	1	1	-16.878476461489765	20.058096504255488	57.7555791892609	0	0	0
364	1	1	-16.06352821907323	20.612278191023993	57.58604447236605	0	0	0
365	1	1	-15.248579976656696	20.7425476627539	57.02134169486499	0	0	0
366	1	1	-14.433631734240162	21.296729349522405	56.851806977970135	0	0	0
367	1	1	-13.618683491823628	21.42699882125231	56.287104200469074	0	0	0
368	1	1	-12.803735249407094	21.981180508020817	56.11756948357422	0	0	0
369	1	1	-11.98878700699056	22.111449979750724	55.55286670607316	0	0	0
370	1	1	-11.173838764574025	22.66563166651923	55.38333198917831	0	0	0
371	1	1	-10.358890522157491	22.795901138249135	54.81862921167725	0	0	0
372	1	1	-9.543942279740957	23.35008282501764	54.649094494782396	0	0	0
373	1	1	-8.728994037324423	23.480352296747547	54.084391717281335	0	0	0
374	1	1	-7.914045794907889	24.034533983516052	53.91485700038648	0	0	0
375	1	1	-7.099097552491354	24.16480345524596	53.35015422288542	0	0	0
376	1	1	-6.28414931007482	24.718985142014464	53.18061950599057	0	0	0
377	1	1	-5.469201067658286	24.84925461374437	52.61591672848951	0	0	0
378	1	1	-4.654252825241752	25.403436300512876	52.44638201159466	0	0	0
379	1	1	-3.8393045828252177	25.533705772242783	51.881679234093596	0	0	0
380	1	1	-25.597621511723275	15.388674308248689	62.313208648395104	0	0	0
381	1	1	-25.352335895374914	14.419557213249632	62.28777200959996	0	0	0
382	1	1	-25.107050279026552	13.91296989036662	63.11433371371335	0	0	0
383	1	1	-24.86176466267819	12.943852795367564	63.08889707491821	0	0	0
384	1	1	-24.61647904632983	12.437265472484551	63.915458779031596	0	0	0
385	1	1	-24.371193429981467	11.468148377485495	63.890022140236454	0	0	0
386	1	1	-24.125907813633106	10.961561054602482	64.71658384434984	0	0	0
387	1	1	-23.880622197284744	9.992443959603426	64.6911472055547	0	0	0
388	1	1	-23.635336580936382	9.485856636720413	65.51770890966809	0	0	0
389	1	1	-23.39005096458802	8.516739541721357	65.49227227087295	0	0	0
390	1	1	-23.14476534823966	8.010152218838344	66.31883397498633	0	0	0
391	1	1	-22.899479731891297	7.041035123839289	66.29339733619119	0	0	0
392	1	1	-22.654194115542936	6.5344478009562765	67.11995904030458	0	0	0
393	1	1	-22.408908499194574	5.565330705957221	67.09452240150944	0	0	0
394	1	1	-22.163622882846212	5.058743383074209	67.92108410562282	0	0	0
395	1	1	-21.91833726649785	4.089626288075153	67.89564746682768	0	0	0
396	1	1	-21.67305165014949	3.5830389651921406	68.72220917094107	0	0	0
397	1	1	-21.427766033801127	2.6139218701930846	68.69677253214593	0	0	0
398	1	1	-21.182480417452766	2.1073345473100726	69.52333423625932	0	0	0
399	1	1	-20.937194801104404	1.1382174523110167	69.49789759746417	0	0	0
400	1	1	-20.691909184756042	0.6316301294280044	70.32445930157756	0	0	0
401	1	1	-20.44662356840768	-0.3374869655710514	70.29902266278242	0	0	0
402	1	1	-20.20133795205932	-0.8440742884540636	71.12558436689581	0	0	0
403	1	1	-19.956052335710957	-1.8131913834531195	71.10014772810067	0	0	0
404	1	1	-19.710766719362596	-2.3197787063361317	71.92670943221405	0	0	0
405	1	1	-19.465481103014234	-3.2888958013351877	71.90127279341891	0	0	0
406	1	1	-19.220195486665872	-3.7954831242182	72.7278344975323	0	0	0
407	1	1	-26.21728982423449	16.885383156268578	62.517151652476926	0	0	0
408	1	1	-26.59167252039735	17.11048244368278	63.4166892601507	0	0	0
409	1	1	-26.966055216560207	18.002054507294847	63.671516362713106	0	0	0
410	1	1	-27.340437912723065	18.22715379470905	64.57105397038687	0	0	0
411	1	1	-27.714820608885923	19.118725858321117	64.82588107294929	0	0	0
412	1	1	-28.08920330504878	19.34382514573532	65.72541868062305	0	0	0
413	1	1	-28.463586001211638	20.235397209347386	65.98024578318547	0	0	0
414	1	1	-28.837968697374496	20.46049649676159	66.87978339085923	0	0	0
415	1	1	-29.212351393537354	21.352068560373656	67.13461049342165	0	0	0
416	1	1	-29.58673408970021	21.57716784778786	68.03414810109541	0	0	0
417	1	1	-29.96111678586307	22.468739911399926	68.28897520365783	0	0	0
418	1	1	-30.335499482025927	22.69383919881413	69.18851281133159	0	0	0
419	1	1	-30.709882178188785	23.585411262426195	69.44333991389401	0	0	0
420	1	1	-31.084264874351643	23.810510549840398	70.34287752156777	0	0	0
421	1	1	-31.4586475705145	24.702082613452465	70.59770462413019	0	0	0
422	1	1	-31.83303026667736	24.927181900866668	71.49724223180395	0	0	0
423	1	1	-32.207412962840216	25.818753964478734	71.75206933436637	0	0	0
424	1	1	-32.58179565900307	26.043853251892937	72.65160694204013	0	0	0
425	1	1	-32.956178355165925	26.935425315505004	72.90643404460255	0	0	0
426	1	1	-33.33056105132878	27.160524602919207	73.80597165227631	0	0	0
427	1	1	-33.70494374749163	28.052096666531273	74.06079875483873	0	0	0
428	1	1	-34.07932644365449	28.277195953945476	74.96033636251249	0	0	0
429	1	1	-34.45370913981734	29.168768017557543	75.21516346507491	0	0	0
430	1	1	-34.828091835980196	29.393867304971746	76.11470107274867	0	0	0
431	1	1	-35.20247453214305	30.285439368583813	76.36952817531109	0	0	0
432	1	1	-35.576857228305904	30.510538655998015	77.26906578298485	0	0	0
433	1	1	-35.95123992446876	31.402110719610082	77.52389288554727	0	0	0
434	1	1	-36.26340563277042	31.374014855729733	78.47350501320432	0	0	0