bb254nuc7bl31bn4d30tot700V2

689 atoms
688 bonds
708 angles

1 atom types
1 bond types
1 angle types

-1000 1000 xlo xhi
-1000 1000 ylo yhi
-1000 1000 zlo zhi

Masses

1 1

Atoms

1	1	1	0.0	0.0	0.0	0	0	0
2	1	1	0.0	0.0	1.0	0	0	0
3	1	1	0.0	-0.49999999999999994	1.8660254037844388	0	0	0
4	1	1	0.0	0.0	2.7320508075688776	0	0	0
5	1	1	0.0	-0.49999999999999994	3.5980762113533165	0	0	0
6	1	1	0.0	0.0	4.464101615137755	0	0	0
7	1	1	0.0	-0.49999999999999994	5.330127018922194	0	0	0
8	1	1	0.0	0.0	6.196152422706632	0	0	0
9	1	1	0.0	-0.49999999999999994	7.06217782649107	0	0	0
10	1	1	0.0	0.0	7.928203230275509	0	0	0
11	1	1	0.0	-0.49999999999999994	8.794228634059948	0	0	0
12	1	1	0.0	0.0	9.660254037844387	0	0	0
13	1	1	0.0	-0.49999999999999994	10.526279441628827	0	0	0
14	1	1	0.0	0.0	11.392304845413266	0	0	0
15	1	1	0.0	-0.49999999999999994	12.258330249197705	0	0	0
16	1	1	0.0	0.0	13.124355652982144	0	0	0
17	1	1	0.0	-0.49999999999999994	13.990381056766584	0	0	0
18	1	1	0.0	0.0	14.856406460551023	0	0	0
19	1	1	0.0	-0.49999999999999994	15.722431864335462	0	0	0
20	1	1	0.0	0.0	16.5884572681199	0	0	0
21	1	1	0.0	-0.49999999999999994	17.454482671904337	0	0	0
22	1	1	0.0	0.0	18.320508075688775	0	0	0
23	1	1	0.0	-0.49999999999999994	19.186533479473212	0	0	0
24	1	1	0.0	0.0	20.05255888325765	0	0	0
25	1	1	0.0	-0.49999999999999994	20.918584287042087	0	0	0
26	1	1	0.0	0.0	21.784609690826525	0	0	0
27	1	1	0.0	-0.49999999999999994	22.650635094610962	0	0	0
28	1	1	0.0	0.0	23.5166604983954	0	0	0
29	1	1	0.0	-0.49999999999999994	24.382685902179837	0	0	0
30	1	1	0.0	0.0	25.248711305964274	0	0	0
31	1	1	0.0	-0.49999999999999994	26.114736709748712	0	0	0
32	1	1	0.0	0.0	26.98076211353315	0	0	0
33	1	1	-0.11010157975859554	-0.6438603875008733	27.737942041649237	0	0	0
34	1	1	-0.2202031595171912	-1.5800498036251673	28.07174890088301	0	0	0
35	1	1	-0.33030473927578685	-1.7590592916333723	29.049416147617652	0	0	0
36	1	1	-0.4404063190343825	-2.695248707757666	29.383223006851424	0	0	0
37	1	1	-0.5505078987929781	-2.8742581957658713	30.360890253586067	0	0	0
38	1	1	-0.6606094785515738	-3.810447611890165	30.69469711281984	0	0	0
39	1	1	-0.7707110583101695	-3.9894570998983703	31.672364359554482	0	0	0
40	1	1	-0.8808126380687652	-4.925646516022664	32.00617121878825	0	0	0
41	1	1	-0.9909142178273609	-5.104656004030869	32.9838384655229	0	0	0
42	1	1	-1.1010157975859565	-6.040845420155163	33.317645324756676	0	0	0
43	1	1	-1.211117377344552	-6.219854908163368	34.29531257149132	0	0	0
44	1	1	-1.3212189571031476	-7.156044324287662	34.6291194307251	0	0	0
45	1	1	-1.4313205368617432	-7.335053812295867	35.606786677459745	0	0	0
46	1	1	-1.5414221166203388	-8.271243228420161	35.94059353669352	0	0	0
47	1	1	-1.6515236963789344	-8.450252716428366	36.91826078342817	0	0	0
48	1	1	-1.76162527613753	-9.386442132552661	37.25206764266194	0	0	0
49	1	1	-1.8717268558961255	-9.565451620560866	38.22973488939659	0	0	0
50	1	1	-1.981828435654721	-10.501641036685161	38.563541748630364	0	0	0
51	1	1	-2.091930015413317	-10.680650524693366	39.54120899536501	0	0	0
52	1	1	-2.2020315951719125	-11.61683994081766	39.875015854598786	0	0	0
53	1	1	-2.312133174930508	-11.795849428825866	40.85268310133343	0	0	0
54	1	1	-2.4222347546891037	-12.73203884495016	41.18648996056721	0	0	0
55	1	1	-2.5323363344476992	-12.911048332958366	42.164157207301855	0	0	0
56	1	1	-2.642437914206295	-13.84723774908266	42.49796406653563	0	0	0
57	1	1	-2.7525394939648904	-14.026247237090866	43.47563131327028	0	0	0
58	1	1	-2.862641073723486	-14.96243665321516	43.80943817250405	0	0	0
59	1	1	-2.9727426534820816	-15.141446141223366	44.7871054192387	0	0	0
60	1	1	-3.082844233240677	-16.07763555734766	45.120912278472474	0	0	0
61	1	1	-3.1929458129992727	-16.256645045355864	46.09857952520712	0	0	0
62	1	1	-3.3030473927578683	-17.192834461480157	46.432386384440896	0	0	0
63	1	1	-3.413148972516464	-17.371843949488362	47.41005363117554	0	0	0
64	1	1	-0.7557130272384627	0.6548615229947098	26.988124597022146	0	0	0
65	1	1	-1.5114260544769262	1.2183069961245976	27.321931456255918	0	0	0
66	1	1	-2.26713908171539	1.7891149527434829	27.000876792494978	0	0	0
67	1	1	-3.0228521089538534	2.3525604258733708	27.33468365172875	0	0	0
68	1	1	-3.778565136192317	2.923368382492256	27.01362898796781	0	0	0
69	1	1	-4.5342781634307805	3.486813855622144	27.34743584720158	0	0	0
70	1	1	-5.289991190669244	4.057621812241029	27.02638118344064	0	0	0
71	1	1	-6.045704217907707	4.621067285370917	27.360188042674412	0	0	0
72	1	1	-6.80141724514617	5.191875241989803	27.039133378913473	0	0	0
73	1	1	-7.557130272384633	5.755320715119691	27.372940238147244	0	0	0
74	1	1	-8.312843299623097	6.3261286717385765	27.051885574386304	0	0	0
75	1	1	-9.068556326861561	6.889574144868464	27.385692433620076	0	0	0
76	1	1	-9.824269354100025	7.46038210148735	27.064637769859136	0	0	0
77	1	1	-10.579982381338489	8.023827574617238	27.398444629092907	0	0	0
78	1	1	-11.335695408576953	8.594635531236124	27.077389965331967	0	0	0
79	1	1	-12.091408435815417	9.15808100436601	27.41119682456574	0	0	0
80	1	1	-12.847121463053881	9.728888960984897	27.0901421608048	0	0	0
81	1	1	-13.602834490292345	10.292334434114784	27.42394902003857	0	0	0
82	1	1	-14.358547517530809	10.86314239073367	27.10289435627763	0	0	0
83	1	1	-15.114260544769273	11.426587863863556	27.436701215511402	0	0	0
84	1	1	-15.869973572007737	11.997395820482442	27.115646551750462	0	0	0
85	1	1	-16.6256865992462	12.560841293612329	27.449453410984233	0	0	0
86	1	1	-17.381399626484665	13.131649250231215	27.128398747223294	0	0	0
87	1	1	-18.13711265372313	13.695094723361102	27.462205606457065	0	0	0
88	1	1	-18.892825680961593	14.265902679979988	27.141150942696125	0	0	0
89	1	1	-19.648538708200057	14.829348153109875	27.474957801929897	0	0	0
90	1	1	-20.40425173543852	15.40015610972876	27.153903138168957	0	0	0
91	1	1	-21.159964762676985	15.963601582858647	27.487709997402728	0	0	0
92	1	1	-21.91567778991545	16.534409539477533	27.16665533364179	0	0	0
93	1	1	-22.671390817153913	17.097855012607422	27.50046219287556	0	0	0
94	1	1	-23.427103844392377	17.668662969226308	27.17940752911462	0	0	0
95	1	1	0.865814606997055	0.489709153356822	27.083475362089885	0	0	0
96	1	1	1.7316292139941107	0.8624530963512314	27.417282221323656	0	0	0
97	1	1	2.5974438209911668	1.3379102879023776	27.261379927200604	0	0	0
98	1	1	3.4632584279882224	1.710654230896787	27.595186786434375	0	0	0
99	1	1	4.329073034985278	2.186111422447933	27.439284492311323	0	0	0
100	1	1	5.1948876419823335	2.5588553654423425	27.773091351545094	0	0	0
101	1	1	6.060702248979389	3.0343125569934886	27.617189057422042	0	0	0
102	1	1	6.926516855976445	3.407056499987898	27.950995916655813	0	0	0
103	1	1	7.7923314629735	3.882513691539044	27.79509362253276	0	0	0
104	1	1	8.658146069970556	4.255257634533454	28.128900481766532	0	0	0
105	1	1	9.523960676967612	4.7307148260846	27.97299818764348	0	0	0
106	1	1	10.389775283964667	5.103458769079009	28.30680504687725	0	0	0
107	1	1	11.255589890961723	5.578915960630155	28.1509027527542	0	0	0
108	1	1	12.121404497958778	5.951659903624565	28.48470961198797	0	0	0
109	1	1	12.987219104955834	6.427117095175711	28.328807317864918	0	0	0
110	1	1	13.85303371195289	6.79986103817012	28.66261417709869	0	0	0
111	1	1	14.718848318949945	7.275318229721266	28.506711882975637	0	0	0
112	1	1	15.584662925947	7.648062172715676	28.840518742209408	0	0	0
113	1	1	16.450477532944056	8.123519364266823	28.684616448086356	0	0	0
114	1	1	17.316292139941112	8.496263307261232	29.018423307320127	0	0	0
115	1	1	18.182106746938167	8.97172049881238	28.862521013197075	0	0	0
116	1	1	19.047921353935223	9.344464441806789	29.196327872430846	0	0	0
117	1	1	19.91373596093228	9.819921633357936	29.040425578307794	0	0	0
118	1	1	20.779550567929334	10.192665576352345	29.374232437541565	0	0	0
119	1	1	21.64536517492639	10.668122767903492	29.218330143418513	0	0	0
120	1	1	22.511179781923445	11.040866710897902	29.552137002652284	0	0	0
121	1	1	23.3769943889205	11.516323902449049	29.39623470852923	0	0	0
122	1	1	24.242808995917557	11.889067845443458	29.730041567763003	0	0	0
123	1	1	25.108623602914612	12.364525036994605	29.57413927363995	0	0	0
124	1	1	25.974438209911668	12.737268979989015	29.90794613287372	0	0	0
125	1	1	26.840252816908723	13.212726171540162	29.75204383875067	0	0	0
126	1	1	27.70606742390578	13.585470114534571	30.08585069798444	0	0	0
127	1	1	28.087563166492508	12.974029581282226	30.779104960635806	0	0	0
128	1	1	28.469058909079237	12.097879415256509	31.073760496747564	0	0	0
129	1	1	28.850554651665966	11.914983511882157	31.979856566111668	0	0	0
130	1	1	29.232050394252695	11.03883334585644	32.274512102223426	0	0	0
131	1	1	29.613546136839425	10.85593744248209	33.18060817158753	0	0	0
132	1	1	29.995041879426154	9.979787276456372	33.47526370769929	0	0	0
133	1	1	30.376537622012883	9.79689137308202	34.381359777063395	0	0	0
134	1	1	30.758033364599612	8.920741207056304	34.67601531317516	0	0	0
135	1	1	31.13952910718634	8.737845303681953	35.58211138253926	0	0	0
136	1	1	31.52102484977307	7.861695137656235	35.87676691865102	0	0	0
137	1	1	31.9025205923598	7.6787992342818825	36.782862988015125	0	0	0
138	1	1	32.28401633494653	6.802649068256165	37.07751852412689	0	0	0
139	1	1	32.66551207753326	6.619753164881812	37.98361459349099	0	0	0
140	1	1	33.04700782011999	5.743602998856095	38.27827012960275	0	0	0
141	1	1	33.428503562706716	5.560707095481742	39.184366198966856	0	0	0
142	1	1	33.809999305293445	4.684556929456025	39.47902173507862	0	0	0
143	1	1	34.191495047880174	4.501661026081672	40.38511780444272	0	0	0
144	1	1	34.5729907904669	3.625510860055955	40.67977334055448	0	0	0
145	1	1	34.95448653305363	3.4426149566816027	41.58586940991859	0	0	0
146	1	1	35.33598227564036	2.5664647906558855	41.88052494603035	0	0	0
147	1	1	35.71747801822709	2.383568887281533	42.78662101539445	0	0	0
148	1	1	36.09897376081382	1.5074187212558159	43.081276551506214	0	0	0
149	1	1	36.48046950340055	1.3245228178814636	43.98737262087032	0	0	0
150	1	1	36.86196524598728	0.4483726518557464	44.28202815698208	0	0	0
151	1	1	37.24346098857401	0.2654767484813941	45.18812422634618	0	0	0
152	1	1	37.62495673116074	-0.6106734175443231	45.482779762457945	0	0	0
153	1	1	38.006452473747466	-0.7935693209186754	46.38887583182205	0	0	0
154	1	1	38.387948216334195	-1.6697194869443925	46.68353136793381	0	0	0
155	1	1	38.769443958920924	-1.8526153903187448	47.589627437297914	0	0	0
156	1	1	39.15093970150765	-2.728765556344462	47.884282973409675	0	0	0
157	1	1	39.53243544409438	-2.9116614597188146	48.79037904277378	0	0	0
158	1	1	27.548296969476905	14.487356467527565	30.487981883040142	0	0	0
159	1	1	27.39052651504803	15.067347368018146	31.28718088144882	0	0	0
160	1	1	27.232756060619156	16.049469453564427	31.1844935268645	0	0	0
161	1	1	27.074985606190282	16.62946035405501	31.983692525273177	0	0	0
162	1	1	26.917215151761408	17.611582439601293	31.88100517068886	0	0	0
163	1	1	26.759444697332533	18.191573340091875	32.680204169097536	0	0	0
164	1	1	26.60167424290366	19.173695425638158	32.57751681451322	0	0	0
165	1	1	26.443903788474785	19.75368632612874	33.376715812921894	0	0	0
166	1	1	26.28613333404591	20.735808411675023	33.274028458337575	0	0	0
167	1	1	26.128362879617036	21.315799312165606	34.07322745674625	0	0	0
168	1	1	25.970592425188162	22.29792139771189	33.970540102161934	0	0	0
169	1	1	25.812821970759288	22.87791229820247	34.76973910057061	0	0	0
170	1	1	25.655051516330413	23.860034383748754	34.66705174598629	0	0	0
171	1	1	25.49728106190154	24.440025284239336	35.46625074439497	0	0	0
172	1	1	25.339510607472665	25.42214736978562	35.36356338981065	0	0	0
173	1	1	25.18174015304379	26.002138270276202	36.16276238821933	0	0	0
174	1	1	25.023969698614916	26.984260355822485	36.06007503363501	0	0	0
175	1	1	24.866199244186042	27.564251256313067	36.859274032043686	0	0	0
176	1	1	24.708428789757168	28.54637334185935	36.75658667745937	0	0	0
177	1	1	24.550658335328293	29.126364242349933	37.555785675868044	0	0	0
178	1	1	24.39288788089942	30.108486327896216	37.453098321283726	0	0	0
179	1	1	24.235117426470545	30.688477228386798	38.2522973196924	0	0	0
180	1	1	24.07734697204167	31.67059931393308	38.149609965108084	0	0	0
181	1	1	23.919576517612796	32.25059021442366	38.94880896351676	0	0	0
182	1	1	23.761806063183922	33.23271229996995	38.84612160893244	0	0	0
183	1	1	23.604035608755048	33.812703200460525	39.64532060734112	0	0	0
184	1	1	23.446265154326174	34.79482528600681	39.5426332527568	0	0	0
185	1	1	23.2884946998973	35.37481618649739	40.34183225116548	0	0	0
186	1	1	23.130724245468425	36.35693827204368	40.23914489658116	0	0	0
187	1	1	22.97295379103955	36.936929172534256	41.038343894989836	0	0	0
188	1	1	22.815183336610676	37.91905125808054	40.93565654040552	0	0	0
189	1	1	28.349386699669154	13.66829774952205	29.324746308091918	0	0	0
190	1	1	28.99270597543253	14.120580780502854	28.707024389006875	0	0	0
191	1	1	29.636025251195903	13.811759421591134	28.006474834934355	0	0	0
192	1	1	30.279344526959278	14.264042452571937	27.388752915849313	0	0	0
193	1	1	30.922663802722653	13.955221093660217	26.688203361776793	0	0	0
194	1	1	31.565983078486028	14.40750412464102	26.07048144269175	0	0	0
195	1	1	32.2093023542494	14.0986827657293	25.36993188861923	0	0	0
196	1	1	32.85262163001278	14.550965796710104	24.75220996953419	0	0	0
197	1	1	33.49594090577615	14.242144437798384	24.05166041546167	0	0	0
198	1	1	34.13926018153953	14.694427468779187	23.433938496376626	0	0	0
199	1	1	34.7825794573029	14.385606109867467	22.733388942304106	0	0	0
200	1	1	35.425898733066276	14.83788914084827	22.115667023219064	0	0	0
201	1	1	36.06921800882965	14.52906778193655	21.415117469146544	0	0	0
202	1	1	36.712537284593026	14.981350812917354	20.797395550061502	0	0	0
203	1	1	37.3558565603564	14.672529454005634	20.096845995988982	0	0	0
204	1	1	37.999175836119775	15.124812484986437	19.47912407690394	0	0	0
205	1	1	38.64249511188315	14.815991126074717	18.77857452283142	0	0	0
206	1	1	39.285814387646525	15.26827415705552	18.160852603746378	0	0	0
207	1	1	39.9291336634099	14.9594527981438	17.460303049673858	0	0	0
208	1	1	40.572452939173274	15.411735829124604	16.842581130588815	0	0	0
209	1	1	41.21577221493665	15.102914470212884	16.142031576516295	0	0	0
210	1	1	41.859091490700024	15.555197501193687	15.524309657431253	0	0	0
211	1	1	42.5024107664634	15.246376142281967	14.823760103358733	0	0	0
212	1	1	43.14573004222677	15.69865917326277	14.206038184273691	0	0	0
213	1	1	43.78904931799015	15.38983781435105	13.505488630201171	0	0	0
214	1	1	44.43236859375352	15.842120845331854	12.887766711116129	0	0	0
215	1	1	45.0756878695169	15.533299486420134	12.187217157043609	0	0	0
216	1	1	45.71900714528027	15.985582517400937	11.569495237958566	0	0	0
217	1	1	46.36232642104365	15.676761158489217	10.868945683886047	0	0	0
218	1	1	47.00564569680702	16.12904418947002	10.251223764801004	0	0	0
219	1	1	47.6489649725704	15.820222830558299	9.550674210728484	0	0	0
220	1	1	48.29228424833377	16.272505861539102	8.932952291643442	0	0	0
221	1	1	48.0845824315875	16.016536378041817	7.9888444700264225	0	0	0
222	1	1	47.87688061484123	16.266914213548095	7.043238370845855	0	0	0
223	1	1	47.669178798094954	15.573184227437356	6.353601755162573	0	0	0
224	1	1	47.46147698134868	15.823562062943633	5.407995655982005	0	0	0
225	1	1	47.25377516460241	15.129832076832894	4.718359040298723	0	0	0
226	1	1	47.04607334785614	15.380209912339172	3.7727529411181555	0	0	0
227	1	1	46.838371531109864	14.686479926228433	3.0831163254348732	0	0	0
228	1	1	46.63066971436359	14.93685776173471	2.1375102262543058	0	0	0
229	1	1	46.42296789761732	14.243127775623972	1.4478736105710235	0	0	0
230	1	1	46.21526608087105	14.49350561113025	0.502267511390456	0	0	0
231	1	1	46.007564264124774	13.79977562501951	-0.18736910429282638	0	0	0
232	1	1	45.7998624473785	14.050153460525788	-1.1329752034733938	0	0	0
233	1	1	45.59216063063223	13.356423474415049	-1.822611819156676	0	0	0
234	1	1	45.384458813885956	13.606801309921327	-2.7682179183372435	0	0	0
235	1	1	45.176756997139684	12.913071323810588	-3.457854534020526	0	0	0
236	1	1	44.96905518039341	13.163449159316865	-4.403460633201093	0	0	0
237	1	1	44.76135336364714	12.469719173206126	-5.0930972488843755	0	0	0
238	1	1	44.553651546900866	12.720097008712404	-6.038703348064943	0	0	0
239	1	1	44.345949730154594	12.026367022601665	-6.728339963748225	0	0	0
240	1	1	44.13824791340832	12.276744858107943	-7.673946062928793	0	0	0
241	1	1	43.93054609666205	11.583014871997204	-8.363582678612076	0	0	0
242	1	1	43.722844279915776	11.833392707503481	-9.309188777792643	0	0	0
243	1	1	43.515142463169504	11.139662721392742	-9.998825393475926	0	0	0
244	1	1	43.30744064642323	11.39004055689902	-10.944431492656493	0	0	0
245	1	1	43.09973882967696	10.696310570788281	-11.634068108339775	0	0	0
246	1	1	42.892037012930686	10.946688406294559	-12.579674207520343	0	0	0
247	1	1	42.68433519618441	10.25295842018382	-13.269310823203625	0	0	0
248	1	1	42.47663337943814	10.503336255690098	-14.214916922384193	0	0	0
249	1	1	42.26893156269187	9.809606269579358	-14.904553538067475	0	0	0
250	1	1	42.061229745945596	10.059984105085636	-15.850159637248042	0	0	0
251	1	1	41.85352792919932	9.366254118974897	-16.539796252931325	0	0	0
252	1	1	49.224982173482466	15.989849029955494	9.156960541452323	0	0	0
253	1	1	50.15768009863116	15.633056908346429	9.209628960652301	0	0	0
254	1	1	51.090378023779856	15.500273036546245	9.544954211435886	0	0	0
255	1	1	52.02307594892855	15.14348091493718	9.597622630635865	0	0	0
256	1	1	52.955773874077245	15.010697043136997	9.93294788141945	0	0	0
257	1	1	53.88847179922594	14.653904921527932	9.985616300619428	0	0	0
258	1	1	54.821169724374634	14.521121049727748	10.320941551403013	0	0	0
259	1	1	55.75386764952333	14.164328928118683	10.373609970602992	0	0	0
260	1	1	56.686565574672024	14.0315450563185	10.708935221386577	0	0	0
261	1	1	57.61926349982072	13.674752934709435	10.761603640586555	0	0	0
262	1	1	58.55196142496941	13.541969062909251	11.09692889137014	0	0	0
263	1	1	59.48465935011811	13.185176941300186	11.149597310570119	0	0	0
264	1	1	60.4173572752668	13.052393069500003	11.484922561353704	0	0	0
265	1	1	61.3500552004155	12.695600947890938	11.537590980553682	0	0	0
266	1	1	62.28275312556419	12.562817076090754	11.872916231337268	0	0	0
267	1	1	63.215451050712886	12.20602495448169	11.925584650537246	0	0	0
268	1	1	64.14814897586157	12.073241082681506	12.260909901320831	0	0	0
269	1	1	65.08084690101026	11.716448961072441	12.31357832052081	0	0	0
270	1	1	66.01354482615895	11.583665089272257	12.648903571304395	0	0	0
271	1	1	66.94624275130764	11.226872967663192	12.701571990504373	0	0	0
272	1	1	67.87894067645632	11.094089095863009	13.036897241287958	0	0	0
273	1	1	68.81163860160501	10.737296974253944	13.089565660487937	0	0	0
274	1	1	69.7443365267537	10.60451310245376	13.424890911271522	0	0	0
275	1	1	70.67703445190239	10.247720980844695	13.4775593304715	0	0	0
276	1	1	71.60973237705107	10.114937109044511	13.812884581255085	0	0	0
277	1	1	72.54243030219976	9.758144987435447	13.865553000455064	0	0	0
278	1	1	73.47512822734845	9.625361115635263	14.200878251238649	0	0	0
279	1	1	74.40782615249714	9.268568994026198	14.253546670438627	0	0	0
280	1	1	75.34052407764582	9.135785122226014	14.588871921222212	0	0	0
281	1	1	76.27322200279451	8.77899300061695	14.64154034042219	0	0	0
282	1	1	77.2059199279432	8.646209128816766	14.976865591205776	0	0	0
283	1	1	48.2115213007127	17.264057710789295	9.034452422382671	0	0	0
284	1	1	48.13075835309162	18.072016736039785	9.61813003871538	0	0	0
285	1	1	48.04999540547055	18.981475892029504	9.210255805797898	0	0	0
286	1	1	47.96923245784947	19.789434917279994	9.793933422130607	0	0	0
287	1	1	47.8884695102284	20.698894073269713	9.386059189213125	0	0	0
288	1	1	47.80770656260732	21.506853098520203	9.969736805545834	0	0	0
289	1	1	47.72694361498625	22.416312254509922	9.561862572628351	0	0	0
290	1	1	47.64618066736517	23.224271279760412	10.14554018896106	0	0	0
291	1	1	47.5654177197441	24.13373043575013	9.737665956043578	0	0	0
292	1	1	47.48465477212302	24.94168946100062	10.321343572376287	0	0	0
293	1	1	47.40389182450195	25.85114861699034	9.913469339458805	0	0	0
294	1	1	47.32312887688087	26.65910764224083	10.497146955791514	0	0	0
295	1	1	47.2423659292598	27.56856679823055	10.089272722874032	0	0	0
296	1	1	47.16160298163872	28.37652582348104	10.672950339206741	0	0	0
297	1	1	47.08084003401765	29.285984979470758	10.265076106289259	0	0	0
298	1	1	47.00007708639657	30.093944004721248	10.848753722621968	0	0	0
299	1	1	46.9193141387755	31.003403160710967	10.440879489704486	0	0	0
300	1	1	46.83855119115442	31.811362185961457	11.024557106037195	0	0	0
301	1	1	46.75778824353335	32.72082134195117	10.616682873119712	0	0	0
302	1	1	46.67702529591227	33.52878036720166	11.200360489452422	0	0	0
303	1	1	46.5962623482912	34.43823952319138	10.79248625653494	0	0	0
304	1	1	46.51549940067012	35.24619854844187	11.376163872867648	0	0	0
305	1	1	46.43473645304905	36.15565770443158	10.968289639950166	0	0	0
306	1	1	46.35397350542797	36.96361672968207	11.551967256282875	0	0	0
307	1	1	46.2732105578069	37.87307588567179	11.144093023365393	0	0	0
308	1	1	46.19244761018582	38.68103491092228	11.727770639698102	0	0	0
309	1	1	46.11168466256475	39.590494066911994	11.31989640678062	0	0	0
310	1	1	46.03092171494367	40.398453092162484	11.903574023113329	0	0	0
311	1	1	45.9501587673226	41.3079122481522	11.495699790195847	0	0	0
312	1	1	45.86939581970152	42.11587127340269	12.079377406528556	0	0	0
313	1	1	45.78863287208045	43.025330429392405	11.671503173611073	0	0	0
314	1	1	45.707869924459374	43.833289454642895	12.255180789943783	0	0	0
315	1	1	46.60709570694633	44.256641238095554	12.365481558563836	0	0	0
316	1	1	47.50632148943329	44.56812425299298	12.672680717972082	0	0	0
317	1	1	48.40554727192025	44.98990803651046	12.556528093927668	0	0	0
318	1	1	49.30477305440721	45.30139105140788	12.863727253335913	0	0	0
319	1	1	50.203998836894165	45.72317483492536	12.747574629291499	0	0	0
320	1	1	51.10322461938112	46.034657849822786	13.054773788699745	0	0	0
321	1	1	52.00245040186808	46.45644163334026	12.93862116465533	0	0	0
322	1	1	52.90167618435504	46.76792464823769	13.245820324063576	0	0	0
323	1	1	53.800901966842	47.189708431755164	13.129667700019162	0	0	0
324	1	1	54.700127749328956	47.50119144665259	13.436866859427408	0	0	0
325	1	1	55.599353531815915	47.92297523017007	13.320714235382994	0	0	0
326	1	1	56.49857931430287	48.23445824506749	13.62791339479124	0	0	0
327	1	1	57.39780509678983	48.65624202858497	13.511760770746825	0	0	0
328	1	1	58.29703087927679	48.967725043482396	13.81895993015507	0	0	0
329	1	1	59.19625666176375	49.38950882699987	13.702807306110657	0	0	0
330	1	1	60.095482444250706	49.7009918418973	14.010006465518902	0	0	0
331	1	1	60.994708226737664	50.122775625414775	13.893853841474488	0	0	0
332	1	1	61.89393400922462	50.4342586403122	14.201053000882734	0	0	0
333	1	1	62.79315979171158	50.85604242382968	14.08490037683832	0	0	0
334	1	1	63.69238557419854	51.167525438727104	14.392099536246565	0	0	0
335	1	1	64.59161135668549	51.58930922224458	14.275946912202151	0	0	0
336	1	1	65.49083713917244	51.90079223714201	14.583146071610397	0	0	0
337	1	1	66.39006292165939	52.32257602065948	14.466993447565983	0	0	0
338	1	1	67.28928870414634	52.63405903555691	14.774192606974228	0	0	0
339	1	1	68.1885144866333	53.055842819074385	14.658039982929814	0	0	0
340	1	1	69.08774026912025	53.36732583397181	14.96523914233806	0	0	0
341	1	1	69.9869660516072	53.78910961748929	14.849086518293646	0	0	0
342	1	1	70.88619183409415	54.100592632386714	15.156285677701892	0	0	0
343	1	1	71.7854176165811	54.52237641590419	15.040133053657478	0	0	0
344	1	1	72.68464339906805	54.83385943080162	15.347332213065723	0	0	0
345	1	1	73.583869181555	55.25564321431909	15.231179589021309	0	0	0
346	1	1	45.35463501665646	43.5639118913292	13.151094194404639	0	0	0
347	1	1	45.001400108853545	42.88266737605956	13.792289180601895	0	0	0
348	1	1	44.64816520105063	43.097336265250775	14.702861730112847	0	0	0
349	1	1	44.29493029324772	42.416091749981135	15.344056716310103	0	0	0
350	1	1	43.9416953854448	42.63076063917235	16.254629265821055	0	0	0
351	1	1	43.58846047764189	41.94951612390271	16.89582425201831	0	0	0
352	1	1	43.235225569838974	42.16418501309393	17.806396801529264	0	0	0
353	1	1	42.88199066203606	41.48294049782429	18.44759178772652	0	0	0
354	1	1	42.528755754233146	41.697609387015504	19.358164337237472	0	0	0
355	1	1	42.17552084643023	41.016364871745864	19.999359323434728	0	0	0
356	1	1	41.82228593862732	41.23103376093708	20.90993187294568	0	0	0
357	1	1	41.4690510308244	40.54978924566744	21.551126859142936	0	0	0
358	1	1	41.11581612302149	40.76445813485866	22.46169940865389	0	0	0
359	1	1	40.762581215218574	40.08321361958902	23.102894394851145	0	0	0
360	1	1	40.40934630741566	40.29788250878023	24.013466944362097	0	0	0
361	1	1	40.056111399612746	39.616637993510594	24.654661930559353	0	0	0
362	1	1	39.70287649180983	39.83130688270181	25.565234480070306	0	0	0
363	1	1	39.34964158400692	39.15006236743217	26.20642946626756	0	0	0
364	1	1	38.996406676204	39.36473125662339	27.117002015778514	0	0	0
365	1	1	38.64317176840109	38.68348674135375	27.75819700197577	0	0	0
366	1	1	38.289936860598175	38.89815563054496	28.668769551486722	0	0	0
367	1	1	37.93670195279526	38.21691111527532	29.309964537683978	0	0	0
368	1	1	37.58346704499235	38.43158000446654	30.22053708719493	0	0	0
369	1	1	37.23023213718943	37.7503354891969	30.861732073392186	0	0	0
370	1	1	36.87699722938652	37.965004378388116	31.77230462290314	0	0	0
371	1	1	36.523762321583604	37.283759863118476	32.4134996091004	0	0	0
372	1	1	36.17052741378069	37.49842875230969	33.32407215861135	0	0	0
373	1	1	35.817292505977775	36.81718423704005	33.96526714480861	0	0	0
374	1	1	35.46405759817486	37.03185312623127	34.87583969431956	0	0	0
375	1	1	35.11082269037195	36.35060861096163	35.517034680516815	0	0	0
376	1	1	34.75758778256903	36.565277500152845	36.42760723002777	0	0	0
377	1	1	45.08100137211177	44.48842202832927	11.833473392602102	0	0	0
378	1	1	44.45413281976417	45.26663717865919	11.795830360383572	0	0	0
379	1	1	43.82726426741657	45.623144931647424	11.103054754478672	0	0	0
380	1	1	43.200395715068964	46.401360081977344	11.065411722260142	0	0	0
381	1	1	42.57352716272136	46.75786783496558	10.372636116355242	0	0	0
382	1	1	41.94665861037376	47.5360829852955	10.334993084136713	0	0	0
383	1	1	41.31979005802616	47.89259073828374	9.642217478231812	0	0	0
384	1	1	40.692921505678555	48.67080588861366	9.604574446013283	0	0	0
385	1	1	40.06605295333095	49.02731364160189	8.911798840108382	0	0	0
386	1	1	39.43918440098335	49.80552879193181	8.874155807889853	0	0	0
387	1	1	38.81231584863575	50.16203654492005	8.181380201984952	0	0	0
388	1	1	38.185447296288146	50.94025169524997	8.143737169766423	0	0	0
389	1	1	37.558578743940544	51.296759448238205	7.450961563861522	0	0	0
390	1	1	36.93171019159294	52.074974598568126	7.413318531642994	0	0	0
391	1	1	36.30484163924534	52.43148235155636	6.720542925738093	0	0	0
392	1	1	35.67797308689774	53.20969750188628	6.682899893519565	0	0	0
393	1	1	35.051104534550134	53.56620525487452	5.990124287614664	0	0	0
394	1	1	34.42423598220253	54.34442040520444	5.952481255396136	0	0	0
395	1	1	33.79736742985493	54.700928158192674	5.259705649491235	0	0	0
396	1	1	33.17049887750733	55.479143308522595	5.222062617272707	0	0	0
397	1	1	32.543630325159725	55.83565106151083	4.529287011367806	0	0	0
398	1	1	31.916761772812126	56.61386621184075	4.491643979149278	0	0	0
399	1	1	31.289893220464528	56.97037396482899	3.7988683732443773	0	0	0
400	1	1	30.66302466811693	57.74858911515891	3.761225341025849	0	0	0
401	1	1	30.03615611576933	58.10509686814714	3.0684497351209483	0	0	0
402	1	1	29.40928756342173	58.88331201847706	3.03080670290242	0	0	0
403	1	1	28.782419011074133	59.2398197714653	2.3380310969975193	0	0	0
404	1	1	28.155550458726534	60.01803492179522	2.300388064778991	0	0	0
405	1	1	27.528681906378935	60.374542674783456	1.6076124588740903	0	0	0
406	1	1	26.901813354031336	61.152757825113376	1.5699694266555617	0	0	0
407	1	1	26.274944801683738	61.50926557810161	0.877193820750661	0	0	0
408	1	1	25.64807624933614	62.28748072843153	0.8395507885321324	0	0	0
409	1	1	25.960556324347174	62.934486286765505	0.14403658292160548	0	0	0
410	1	1	26.273036399358208	63.842566639477724	-0.1347936086630781	0	0	0
411	1	1	26.585516474369243	64.05513278657942	-1.0606293585817341	0	0	0
412	1	1	26.897996549380277	64.96321313929164	-1.3394595501664177	0	0	0
413	1	1	27.210476624391312	65.17577928639334	-2.2652953000850737	0	0	0
414	1	1	27.522956699402346	66.08385963910555	-2.5441254916697575	0	0	0
415	1	1	27.83543677441338	66.29642578620725	-3.4699612415884133	0	0	0
416	1	1	28.147916849424416	67.20450613891947	-3.748791433173097	0	0	0
417	1	1	28.46039692443545	67.41707228602117	-4.674627183091753	0	0	0
418	1	1	28.772876999446485	68.32515263873339	-4.953457374676437	0	0	0
419	1	1	29.08535707445752	68.53771878583508	-5.879293124595093	0	0	0
420	1	1	29.397837149468554	69.4457991385473	-6.158123316179776	0	0	0
421	1	1	29.71031722447959	69.658365285649	-7.083959066098433	0	0	0
422	1	1	30.022797299490623	70.56644563836122	-7.362789257683116	0	0	0
423	1	1	30.335277374501658	70.77901178546291	-8.288625007601771	0	0	0
424	1	1	30.647757449512692	71.68709213817513	-8.567455199186455	0	0	0
425	1	1	30.960237524523727	71.89965828527683	-9.493290949105111	0	0	0
426	1	1	31.27271759953476	72.80773863798905	-9.772121140689794	0	0	0
427	1	1	31.585197674545796	73.02030478509074	-10.69795689060845	0	0	0
428	1	1	31.89767774955683	73.92838513780296	-10.976787082193134	0	0	0
429	1	1	32.210157824567865	74.14095128490466	-11.90262283211179	0	0	0
430	1	1	32.5226378995789	75.04903163761688	-12.181453023696474	0	0	0
431	1	1	32.83511797458994	75.26159778471857	-13.10728877361513	0	0	0
432	1	1	33.14759804960098	76.1696781374308	-13.386118965199813	0	0	0
433	1	1	33.46007812461202	76.38224428453249	-14.31195471511847	0	0	0
434	1	1	33.772558199623056	77.29032463724471	-14.590784906703153	0	0	0
435	1	1	34.085038274634094	77.5028907843464	-15.516620656621809	0	0	0
436	1	1	34.39751834964513	78.41097113705862	-15.795450848206492	0	0	0
437	1	1	34.70999842465617	78.62353728416032	-16.721286598125147	0	0	0
438	1	1	35.02247849966721	79.53161763687254	-17.000116789709832	0	0	0
439	1	1	35.33495857467825	79.74418378397424	-17.925952539628486	0	0	0
440	1	1	25.625609055146402	62.74140867425965	1.730305886851251	0	0	0