bb327nuc7bl40bn4d30tot900V2

887 atoms
886 bonds
906 angles

1 atom types
1 bond types
1 angle types

-1000 1000 xlo xhi
-1000 1000 ylo yhi
-1000 1000 zlo zhi

Masses

1 1

Atoms

1	1	1	0.0	0.0	0.0	0	0	0
2	1	1	0.0	0.0	1.0	0	0	0
3	1	1	0.0	-0.49999999999999994	1.8660254037844388	0	0	0
4	1	1	0.0	0.0	2.7320508075688776	0	0	0
5	1	1	0.0	-0.49999999999999994	3.5980762113533165	0	0	0
6	1	1	0.0	0.0	4.464101615137755	0	0	0
7	1	1	0.0	-0.49999999999999994	5.330127018922194	0	0	0
8	1	1	0.0	0.0	6.196152422706632	0	0	0
9	1	1	0.0	-0.49999999999999994	7.06217782649107	0	0	0
10	1	1	0.0	0.0	7.928203230275509	0	0	0
11	1	1	0.0	-0.49999999999999994	8.794228634059948	0	0	0
12	1	1	0.0	0.0	9.660254037844387	0	0	0
13	1	1	0.0	-0.49999999999999994	10.526279441628827	0	0	0
14	1	1	0.0	0.0	11.392304845413266	0	0	0
15	1	1	0.0	-0.49999999999999994	12.258330249197705	0	0	0
16	1	1	0.0	0.0	13.124355652982144	0	0	0
17	1	1	0.0	-0.49999999999999994	13.990381056766584	0	0	0
18	1	1	0.0	0.0	14.856406460551023	0	0	0
19	1	1	0.0	-0.49999999999999994	15.722431864335462	0	0	0
20	1	1	0.0	0.0	16.5884572681199	0	0	0
21	1	1	0.0	-0.49999999999999994	17.454482671904337	0	0	0
22	1	1	0.0	0.0	18.320508075688775	0	0	0
23	1	1	0.0	-0.49999999999999994	19.186533479473212	0	0	0
24	1	1	0.0	0.0	20.05255888325765	0	0	0
25	1	1	0.0	-0.49999999999999994	20.918584287042087	0	0	0
26	1	1	0.0	0.0	21.784609690826525	0	0	0
27	1	1	0.0	-0.49999999999999994	22.650635094610962	0	0	0
28	1	1	0.0	0.0	23.5166604983954	0	0	0
29	1	1	0.0	-0.49999999999999994	24.382685902179837	0	0	0
30	1	1	0.0	0.0	25.248711305964274	0	0	0
31	1	1	0.0	-0.49999999999999994	26.114736709748712	0	0	0
32	1	1	0.0	0.0	26.98076211353315	0	0	0
33	1	1	0.0	-0.49999999999999994	27.846787517317587	0	0	0
34	1	1	0.0	0.0	28.712812921102024	0	0	0
35	1	1	0.0	-0.49999999999999994	29.578838324886462	0	0	0
36	1	1	0.0	0.0	30.4448637286709	0	0	0
37	1	1	0.0	-0.49999999999999994	31.310889132455337	0	0	0
38	1	1	0.0	0.0	32.17691453623978	0	0	0
39	1	1	0.0	-0.49999999999999994	33.04293994002422	0	0	0
40	1	1	0.0	0.0	33.90896534380866	0	0	0
41	1	1	0.0	-0.49999999999999994	34.7749907475931	0	0	0
42	1	1	-0.26939364921456643	0.11540087937579252	35.51573957103217	0	0	0
43	1	1	-0.5387872984291324	0.27797926270697737	36.46494730964173	0	0	0
44	1	1	-0.8081809476436983	1.1813064694772293	36.7987541688755	0	0	0
45	1	1	-1.0775745968582642	1.3438848528084142	37.747961907485056	0	0	0
46	1	1	-1.34696824607283	2.2472120595786658	38.081768766718824	0	0	0
47	1	1	-1.616361895287396	2.4097904429098507	39.03097650532838	0	0	0
48	1	1	-1.8857555445019618	3.3131176496801027	39.36478336456215	0	0	0
49	1	1	-2.155149193716528	3.4756960330112876	40.31399110317171	0	0	0
50	1	1	-2.4245428429310936	4.37902323978154	40.64779796240548	0	0	0
51	1	1	-2.6939364921456597	4.541601623112724	41.597005701015036	0	0	0
52	1	1	-2.9633301413602258	5.444928829882976	41.9308125602488	0	0	0
53	1	1	-3.232723790574792	5.60750721321416	42.88002029885836	0	0	0
54	1	1	-3.502117439789358	6.510834419984412	43.21382715809213	0	0	0
55	1	1	-3.771511089003924	6.673412803315596	44.16303489670169	0	0	0
56	1	1	-4.04090473821849	7.576740010085848	44.496841755935456	0	0	0
57	1	1	-4.310298387433056	7.739318393417032	45.446049494545015	0	0	0
58	1	1	-4.5796920366476215	8.642645600187285	45.77985635377878	0	0	0
59	1	1	-4.849085685862187	8.80522398351847	46.72906409238834	0	0	0
60	1	1	-5.118479335076753	9.708551190288722	47.06287095162211	0	0	0
61	1	1	-5.3878729842913184	9.871129573619907	48.01207869023167	0	0	0
62	1	1	-5.657266633505884	10.774456780390159	48.345885549465436	0	0	0
63	1	1	-5.92666028272045	10.937035163721344	49.295093288074995	0	0	0
64	1	1	-6.196053931935015	11.840362370491595	49.62890014730876	0	0	0
65	1	1	-6.465447581149581	12.00294075382278	50.57810788591832	0	0	0
66	1	1	-6.734841230364147	12.906267960593032	50.91191474515209	0	0	0
67	1	1	-7.004234879578712	13.068846343924218	51.86112248376165	0	0	0
68	1	1	-7.273628528793278	13.97217355069447	52.194929342995415	0	0	0
69	1	1	-7.543022178007844	14.134751934025655	53.144137081604974	0	0	0
70	1	1	-7.812415827222409	15.038079140795906	53.47794394083874	0	0	0
71	1	1	-8.081809476436975	15.200657524127092	54.4271516794483	0	0	0
72	1	1	-8.35120312565154	16.103984730897345	54.76095853868207	0	0	0
73	1	1	-8.620596774866106	16.26656311422853	55.71016627729163	0	0	0
74	1	1	-8.889990424080672	17.169890320998782	56.043973136525395	0	0	0
75	1	1	-9.159384073295238	17.332468704329965	56.993180875134954	0	0	0
76	1	1	-9.428777722509803	18.23579591110022	57.32698773436872	0	0	0
77	1	1	-9.698171371724369	18.398374294431402	58.27619547297828	0	0	0
78	1	1	-9.967565020938935	19.301701501201656	58.61000233221205	0	0	0
79	1	1	-10.2369586701535	19.46427988453284	59.55921007082161	0	0	0
80	1	1	-10.506352319368066	20.367607091303093	59.893016930055374	0	0	0
81	1	1	-10.775745968582632	20.530185474634276	60.84222466866493	0	0	0
82	1	1	0.9170011335999597	-0.8560103472023031	34.954895037873484	0	0	0
83	1	1	1.8340022671999177	-1.2542764970298061	34.93269154990495	0	0	0
84	1	1	2.751003400799876	-1.4726383565769274	35.26649840913873	0	0	0
85	1	1	3.668004534399834	-1.8709045064044305	35.244294921170194	0	0	0
86	1	1	4.585005667999792	-2.089266365951552	35.57810178040397	0	0	0
87	1	1	5.50200680159975	-2.4875325157790553	35.55589829243544	0	0	0
88	1	1	6.419007935199708	-2.7058943753261766	35.88970515166921	0	0	0
89	1	1	7.336009068799665	-3.10416052515368	35.86750166370068	0	0	0
90	1	1	8.253010202399624	-3.322522384700801	36.201308522934454	0	0	0
91	1	1	9.170011335999583	-3.7207885345283045	36.17910503496592	0	0	0
92	1	1	10.087012469599541	-3.9391503940754258	36.512911894199696	0	0	0
93	1	1	11.0040136031995	-4.337416543902929	36.490708406231164	0	0	0
94	1	1	11.921014736799458	-4.55577840345005	36.82451526546494	0	0	0
95	1	1	12.838015870399417	-4.954044553277553	36.802311777496406	0	0	0
96	1	1	13.755017003999376	-5.1724064128246745	37.13611863673018	0	0	0
97	1	1	14.672018137599334	-5.570672562652177	37.11391514876165	0	0	0
98	1	1	15.589019271199293	-5.789034422199299	37.447722007995424	0	0	0
99	1	1	16.50602040479925	-6.1873005720268015	37.42551852002689	0	0	0
100	1	1	17.423021538399208	-6.405662431573923	37.759325379260666	0	0	0
101	1	1	18.340022671999165	-6.803928581401426	37.737121891292134	0	0	0
102	1	1	19.257023805599122	-7.022290440948547	38.07092875052591	0	0	0
103	1	1	20.17402493919908	-7.42055659077605	38.048725262557376	0	0	0
104	1	1	21.091026072799036	-7.638918450323171	38.38253212179115	0	0	0
105	1	1	22.008027206398992	-8.037184600150674	38.36032863382262	0	0	0
106	1	1	22.92502833999895	-8.255546459697795	38.69413549305639	0	0	0
107	1	1	23.842029473598906	-8.653812609525298	38.67193200508786	0	0	0
108	1	1	24.759030607198863	-8.87217446907242	39.005738864321636	0	0	0
109	1	1	25.67603174079882	-9.270440618899922	38.9835353763531	0	0	0
110	1	1	26.593032874398776	-9.488802478447043	39.31734223558688	0	0	0
111	1	1	27.510034007998733	-9.887068628274546	39.295138747618346	0	0	0
112	1	1	28.42703514159869	-10.105430487821668	39.62894560685212	0	0	0
113	1	1	29.344036275198647	-10.50369663764917	39.60674211888359	0	0	0
114	1	1	30.261037408798604	-10.722058497196292	39.94054897811736	0	0	0
115	1	1	31.17803854239856	-11.120324647023795	39.91834549014883	0	0	0
116	1	1	32.09503967599852	-11.338686506570916	40.252152349382605	0	0	0
117	1	1	33.01204080959848	-11.736952656398419	40.22994886141407	0	0	0
118	1	1	33.92904194319844	-11.95531451594554	40.56375572064785	0	0	0
119	1	1	34.8460430767984	-12.353580665773043	40.541552232679315	0	0	0
120	1	1	35.76304421039836	-12.571942525320164	40.87535909191309	0	0	0
121	1	1	36.68004534399832	-12.970208675147667	40.85315560394456	0	0	0
122	1	1	-0.6476074843854	-1.260100821024145	34.72159329403548	0	0	0
123	1	1	-1.2952149687707988	-1.891668714689652	34.29529933224511	0	0	0
124	1	1	-1.9428224531561975	-2.5766340619127797	34.62910619147888	0	0	0
125	1	1	-2.5904299375415967	-3.2082019555782866	34.20281222968851	0	0	0
126	1	1	-3.2380374219269954	-3.893167302801414	34.536619088922286	0	0	0
127	1	1	-3.885644906312394	-4.524735196466922	34.110325127131915	0	0	0
128	1	1	-4.533252390697793	-5.209700543690049	34.44413198636569	0	0	0
129	1	1	-5.1808598750831925	-5.841268437355557	34.01783802457532	0	0	0
130	1	1	-5.828467359468592	-6.526233784578684	34.351644883809094	0	0	0
131	1	1	-6.476074843853991	-7.157801678244192	33.92535092201872	0	0	0
132	1	1	-7.12368232823939	-7.842767025467319	34.2591577812525	0	0	0
133	1	1	-7.771289812624789	-8.474334919132826	33.832863819462126	0	0	0
134	1	1	-8.418897297010188	-9.159300266355954	34.1666706786959	0	0	0
135	1	1	-9.066504781395587	-9.79086816002146	33.74037671690553	0	0	0
136	1	1	-9.714112265780985	-10.47583350724459	34.074183576139305	0	0	0
137	1	1	-10.361719750166383	-11.107401400910096	33.647889614348934	0	0	0
138	1	1	-11.009327234551781	-11.792366748133224	33.98169647358271	0	0	0
139	1	1	-11.65693471893718	-12.42393464179873	33.55540251179234	0	0	0
140	1	1	-12.304542203322578	-13.10889998902186	33.88920937102611	0	0	0
141	1	1	-12.952149687707976	-13.740467882687366	33.46291540923574	0	0	0
142	1	1	-13.599757172093375	-14.425433229910494	33.796722268469516	0	0	0
143	1	1	-14.247364656478773	-15.057001123576	33.370428306679145	0	0	0
144	1	1	-14.894972140864171	-15.74196647079913	33.70423516591292	0	0	0
145	1	1	-15.54257962524957	-16.373534364464636	33.27794120412255	0	0	0
146	1	1	-16.19018710963497	-17.058499711687762	33.61174806335632	0	0	0
147	1	1	-16.83779459402037	-17.69006760535327	33.18545410156595	0	0	0
148	1	1	-17.48540207840577	-18.375032952576397	33.51926096079973	0	0	0
149	1	1	-18.13300956279117	-19.006600846241906	33.092966999009356	0	0	0
150	1	1	-18.78061704717657	-19.691566193465032	33.42677385824313	0	0	0
151	1	1	-19.42822453156197	-20.32313408713054	33.00047989645276	0	0	0
152	1	1	-20.07583201594737	-21.008099434353667	33.334286755686534	0	0	0
153	1	1	-20.72343950033277	-21.639667328019176	32.90799279389616	0	0	0
154	1	1	-21.37104698471817	-22.324632675242302	33.24179965312994	0	0	0
155	1	1	-22.01865446910357	-22.95620056890781	32.81550569133957	0	0	0
156	1	1	-22.66626195348897	-23.641165916130937	33.14931255057334	0	0	0
157	1	1	-23.31386943787437	-24.272733809796446	32.72301858878297	0	0	0
158	1	1	-23.96147692225977	-24.957699157019572	33.056825448016745	0	0	0
159	1	1	-24.60908440664517	-25.58926705068508	32.630531486226374	0	0	0
160	1	1	-25.25669189103057	-26.274232397908207	32.96433834546015	0	0	0
161	1	1	-25.90429937541597	-26.905800291573716	32.53804438366978	0	0	0
162	1	1	-26.55190685980137	-27.590765638796842	32.87185124290355	0	0	0
163	1	1	-26.386398805799463	-28.460846105928958	32.40755923912181	0	0	0
164	1	1	-26.220890751797555	-28.982211891911128	31.570430335506785	0	0	0
165	1	1	-26.055382697795647	-29.96786968167504	31.603381899023873	0	0	0
166	1	1	-25.88987464379374	-30.48923546765721	30.76625299540885	0	0	0
167	1	1	-25.72436658979183	-31.474893257421122	30.799204558925936	0	0	0
168	1	1	-25.558858535789923	-31.996259043403292	29.96207565531091	0	0	0
169	1	1	-25.393350481788016	-32.981916833167205	29.995027218828	0	0	0
170	1	1	-25.227842427786108	-33.503282619149374	29.157898315212975	0	0	0
171	1	1	-25.0623343737842	-34.48894040891329	29.190849878730063	0	0	0
172	1	1	-24.896826319782292	-35.010306194895456	28.35372097511504	0	0	0
173	1	1	-24.731318265780384	-35.99596398465937	28.386672538632126	0	0	0
174	1	1	-24.565810211778476	-36.51732977064154	27.549543635017102	0	0	0
175	1	1	-24.40030215777657	-37.50298756040545	27.58249519853419	0	0	0
176	1	1	-24.23479410377466	-38.02435334638762	26.745366294919165	0	0	0
177	1	1	-24.069286049772753	-39.01001113615153	26.778317858436253	0	0	0
178	1	1	-23.903777995770845	-39.5313769221337	25.94118895482123	0	0	0
179	1	1	-23.738269941768937	-40.517034711897615	25.974140518338316	0	0	0
180	1	1	-23.57276188776703	-41.038400497879785	25.137011614723292	0	0	0
181	1	1	-23.40725383376512	-42.0240582876437	25.16996317824038	0	0	0
182	1	1	-23.241745779763214	-42.54542407362587	24.332834274625355	0	0	0
183	1	1	-23.076237725761306	-43.53108186338978	24.365785838142443	0	0	0
184	1	1	-22.9107296717594	-44.05244764937195	23.52865693452742	0	0	0
185	1	1	-22.74522161775749	-45.03810543913586	23.561608498044507	0	0	0
186	1	1	-22.579713563755583	-45.55947122511803	22.724479594429482	0	0	0
187	1	1	-22.414205509753675	-46.545129014881944	22.75743115794657	0	0	0
188	1	1	-22.248697455751767	-47.06649480086411	21.920302254331546	0	0	0
189	1	1	-22.08318940174986	-48.052152590628026	21.953253817848633	0	0	0
190	1	1	-21.91768134774795	-48.573518376610195	21.11612491423361	0	0	0
191	1	1	-21.752173293746043	-49.55917616637411	21.149076477750697	0	0	0
192	1	1	-21.586665239744136	-50.08054195235628	20.311947574135672	0	0	0
193	1	1	-21.421157185742228	-51.06619974212019	20.34489913765276	0	0	0
194	1	1	-21.25564913174032	-51.58756552810236	19.507770234037736	0	0	0
195	1	1	-21.090141077738412	-52.57322331786627	19.540721797554824	0	0	0
196	1	1	-20.924633023736504	-53.09458910384844	18.7035928939398	0	0	0
197	1	1	-20.759124969734597	-54.080246893612355	18.736544457456887	0	0	0
198	1	1	-20.59361691573269	-54.601612679594524	17.899415553841862	0	0	0
199	1	1	-20.42810886173078	-55.58727046935844	17.93236711735895	0	0	0
200	1	1	-20.262600807728873	-56.108636255340606	17.095238213743926	0	0	0
201	1	1	-20.097092753726965	-57.09429404510452	17.128189777261014	0	0	0
202	1	1	-19.931584699725057	-57.61565983108669	16.29106087364599	0	0	0
203	1	1	-27.48586882617089	-27.286144902193122	32.68497895441167	0	0	0
204	1	1	-28.419830792540406	-26.928899461528832	32.675453173616226	0	0	0
205	1	1	-29.353792758909922	-26.758526309356427	32.36130665621706	0	0	0
206	1	1	-30.287754725279438	-26.401280868692137	32.35178087542162	0	0	0
207	1	1	-31.221716691648954	-26.23090771651973	32.03763435802245	0	0	0
208	1	1	-32.15567865801847	-25.87366227585544	32.02810857722701	0	0	0
209	1	1	-33.08964062438799	-25.703289123683035	31.713962059827846	0	0	0
210	1	1	-34.023602590757505	-25.346043683018745	31.7044362790324	0	0	0
211	1	1	-34.95756455712702	-25.17567053084634	31.390289761633237	0	0	0
212	1	1	-35.89152652349654	-24.81842509018205	31.38076398083779	0	0	0
213	1	1	-36.82548848986605	-24.648051938009644	31.06661746343863	0	0	0
214	1	1	-37.75945045623557	-24.290806497345354	31.057091682643183	0	0	0
215	1	1	-38.693412422605086	-24.12043334517295	30.74294516524402	0	0	0
216	1	1	-39.6273743889746	-23.76318790450866	30.733419384448574	0	0	0
217	1	1	-40.56133635534412	-23.592814752336253	30.41927286704941	0	0	0
218	1	1	-41.49529832171363	-23.235569311671963	30.409747086253965	0	0	0
219	1	1	-42.42926028808315	-23.065196159499557	30.095600568854803	0	0	0
220	1	1	-43.363222254452666	-22.707950718835267	30.086074788059356	0	0	0
221	1	1	-44.29718422082218	-22.53757756666286	29.771928270660194	0	0	0
222	1	1	-45.2311461871917	-22.18033212599857	29.762402489864748	0	0	0
223	1	1	-46.165108153561214	-22.009958973826166	29.448255972465585	0	0	0
224	1	1	-47.09907011993073	-21.652713533161876	29.43873019167014	0	0	0
225	1	1	-48.033032086300246	-21.48234038098947	29.124583674270976	0	0	0
226	1	1	-48.96699405266976	-21.12509494032518	29.11505789347553	0	0	0
227	1	1	-49.90095601903928	-20.954721788152774	28.800911376076368	0	0	0
228	1	1	-50.834917985408794	-20.597476347488485	28.79138559528092	0	0	0
229	1	1	-51.76887995177831	-20.42710319531608	28.47723907788176	0	0	0
230	1	1	-52.702841918147826	-20.06985775465179	28.467713297086313	0	0	0
231	1	1	-53.63680388451734	-19.899484602479383	28.15356677968715	0	0	0
232	1	1	-54.57076585088686	-19.542239161815093	28.144040998891704	0	0	0
233	1	1	-55.504727817256374	-19.371866009642687	27.82989448149254	0	0	0
234	1	1	-56.43868978362589	-19.014620568978398	27.820368700697095	0	0	0
235	1	1	-57.372651749995406	-18.84424741680599	27.506222183297933	0	0	0
236	1	1	-58.30661371636492	-18.487001976141702	27.496696402502486	0	0	0
237	1	1	-59.24057568273444	-18.316628823969296	27.182549885103324	0	0	0
238	1	1	-60.174537649103954	-17.959383383305006	27.173024104307878	0	0	0
239	1	1	-61.10849961547347	-17.7890102311326	26.858877586908715	0	0	0
240	1	1	-62.042461581842986	-17.43176479046831	26.84935180611327	0	0	0
241	1	1	-62.9764235482125	-17.261391638295905	26.535205288714106	0	0	0
242	1	1	-63.91038551458202	-16.904146197631615	26.52567950791866	0	0	0
243	1	1	-26.431980408570677	-27.71124430199001	33.85729659299172	0	0	0
244	1	1	-26.312053957339984	-28.308304559973372	34.65047796861275	0	0	0
245	1	1	-26.19212750610929	-27.91991946786856	35.56413800742694	0	0	0
246	1	1	-26.072201054878597	-28.51697972585192	36.357319383047965	0	0	0
247	1	1	-25.952274603647904	-28.12859463374711	37.27097942186216	0	0	0
248	1	1	-25.83234815241721	-28.72565489173047	38.06416079748318	0	0	0
249	1	1	-25.712421701186518	-28.33726979962566	38.977820836297376	0	0	0
250	1	1	-25.592495249955824	-28.93433005760902	39.7710022119184	0	0	0
251	1	1	-25.47256879872513	-28.54594496550421	40.68466225073259	0	0	0
252	1	1	-25.352642347494438	-29.14300522348757	41.47784362635362	0	0	0
253	1	1	-25.232715896263745	-28.754620131382758	42.39150366516781	0	0	0
254	1	1	-25.11278944503305	-29.35168038936612	43.184685040788835	0	0	0
255	1	1	-24.99286299380236	-28.963295297261308	44.09834507960303	0	0	0
256	1	1	-24.872936542571665	-29.56035555524467	44.89152645522405	0	0	0
257	1	1	-24.753010091340972	-29.171970463139857	45.805186494038246	0	0	0
258	1	1	-24.63308364011028	-29.76903072112322	46.59836786965927	0	0	0
259	1	1	-24.513157188879585	-29.380645629018407	47.51202790847346	0	0	0
260	1	1	-24.393230737648892	-29.97770588700177	48.30520928409449	0	0	0
261	1	1	-24.2733042864182	-29.589320794896956	49.21886932290868	0	0	0
262	1	1	-24.153377835187506	-30.186381052880318	50.012050698529706	0	0	0
263	1	1	-24.033451383956812	-29.797995960775506	50.9257107373439	0	0	0
264	1	1	-23.91352493272612	-30.395056218758867	51.71889211296492	0	0	0
265	1	1	-23.793598481495426	-30.006671126654055	52.632552151779116	0	0	0
266	1	1	-23.673672030264733	-30.603731384637417	53.42573352740014	0	0	0
267	1	1	-23.55374557903404	-30.215346292532605	54.33939356621433	0	0	0
268	1	1	-23.433819127803346	-30.812406550515966	55.13257494183536	0	0	0
269	1	1	-23.313892676572653	-30.424021458411154	56.04623498064955	0	0	0
270	1	1	-23.19396622534196	-31.021081716394516	56.839416356270576	0	0	0
271	1	1	-23.074039774111267	-30.632696624289704	57.75307639508477	0	0	0
272	1	1	-22.954113322880573	-31.229756882273065	58.54625777070579	0	0	0
273	1	1	-22.83418687164988	-30.841371790168253	59.459917809519986	0	0	0
274	1	1	-22.714260420419187	-31.438432048151615	60.25309918514101	0	0	0
275	1	1	-22.594333969188494	-31.050046956046803	61.166759223955204	0	0	0
276	1	1	-22.4744075179578	-31.647107214030164	61.95994059957623	0	0	0
277	1	1	-22.354481066727107	-31.258722121925352	62.87360063839042	0	0	0
278	1	1	-22.234554615496414	-31.855782379908714	63.666782014011446	0	0	0
279	1	1	-22.11462816426572	-31.4673972878039	64.58044205282563	0	0	0
280	1	1	-21.994701713035028	-32.06445754578726	65.37362342844665	0	0	0
281	1	1	-21.874775261804334	-31.67607245368245	66.28728346726083	0	0	0
282	1	1	-21.75484881057364	-32.27313271166581	67.08046484288185	0	0	0
283	1	1	-21.634922359342948	-31.884747619560997	67.99412488169604	0	0	0
284	1	1	-22.196263537885937	-31.061994160962932	68.0834155734667	0	0	0
285	1	1	-22.757604716428926	-30.394114110650822	68.5721203101606	0	0	0
286	1	1	-23.318945894971915	-29.63694336856806	68.23807158825643	0	0	0
287	1	1	-23.880287073514904	-28.969063318255948	68.72677632495034	0	0	0
288	1	1	-24.441628252057892	-28.211892576173184	68.39272760304617	0	0	0
289	1	1	-25.00296943060088	-27.544012525861074	68.88143233974007	0	0	0
290	1	1	-25.56431060914387	-26.78684178377831	68.5473836178359	0	0	0
291	1	1	-26.12565178768686	-26.1189617334662	69.03608835452981	0	0	0
292	1	1	-26.686992966229848	-25.361790991383437	68.70203963262564	0	0	0
293	1	1	-27.248334144772837	-24.693910941071326	69.19074436931955	0	0	0
294	1	1	-27.809675323315826	-23.936740198988563	68.85669564741538	0	0	0
295	1	1	-28.371016501858815	-23.268860148676453	69.34540038410928	0	0	0
296	1	1	-28.932357680401804	-22.51168940659369	69.01135166220512	0	0	0
297	1	1	-29.493698858944793	-21.84380935628158	69.50005639889902	0	0	0
298	1	1	-30.05504003748778	-21.086638614198815	69.16600767699485	0	0	0
299	1	1	-30.61638121603077	-20.418758563886705	69.65471241368876	0	0	0
300	1	1	-31.17772239457376	-19.66158782180394	69.32066369178459	0	0	0
301	1	1	-31.73906357311675	-18.99370777149183	69.80936842847849	0	0	0
302	1	1	-32.30040475165974	-18.236537029409067	69.47531970657433	0	0	0
303	1	1	-32.86174593020273	-17.568656979096957	69.96402444326823	0	0	0
304	1	1	-33.42308710874572	-16.811486237014194	69.62997572136406	0	0	0
305	1	1	-33.98442828728871	-16.143606186702083	70.11868045805797	0	0	0
306	1	1	-34.5457694658317	-15.38643544461932	69.7846317361538	0	0	0
307	1	1	-35.107110644374686	-14.718555394307211	70.2733364728477	0	0	0
308	1	1	-35.668451822917675	-13.961384652224448	69.93928775094354	0	0	0
309	1	1	-36.22979300146066	-13.293504601912339	70.42799248763744	0	0	0
310	1	1	-36.79113418000365	-12.536333859829575	70.09394376573327	0	0	0
311	1	1	-37.35247535854664	-11.868453809517467	70.58264850242718	0	0	0
312	1	1	-37.91381653708963	-11.111283067434703	70.24859978052301	0	0	0
313	1	1	-38.47515771563262	-10.443403017122595	70.73730451721691	0	0	0
314	1	1	-39.03649889417561	-9.686232275039831	70.40325579531275	0	0	0
315	1	1	-39.5978400727186	-9.018352224727723	70.89196053200665	0	0	0
316	1	1	-40.159181251261586	-8.26118148264496	70.55791181010248	0	0	0
317	1	1	-40.720522429804575	-7.59330143233285	71.04661654679639	0	0	0
318	1	1	-41.281863608347564	-6.836130690250086	70.71256782489222	0	0	0
319	1	1	-41.84320478689055	-6.168250639937977	71.20127256158612	0	0	0
320	1	1	-42.40454596543354	-5.411079897855213	70.86722383968196	0	0	0
321	1	1	-42.96588714397653	-4.743199847543104	71.35592857637586	0	0	0
322	1	1	-43.52722832251952	-3.9860291054603403	71.02187985447169	0	0	0
323	1	1	-44.08856950106251	-3.318149055148231	71.5105845911656	0	0	0
324	1	1	-20.673230426163396	-31.648219482156446	68.1327000088773	0	0	0
325	1	1	-19.71153849298384	-31.512667670044916	68.3709736580512	0	0	0
326	1	1	-18.749846559804286	-31.238540730752124	68.37271916982056	0	0	0
327	1	1	-17.78815462662473	-31.102988918640595	68.61099281899446	0	0	0
328	1	1	-16.826462693445176	-30.828861979347803	68.61273833076382	0	0	0
329	1	1	-15.864770760265621	-30.693310167236273	68.85101197993772	0	0	0
330	1	1	-14.903078827086066	-30.41918322794348	68.85275749170708	0	0	0
331	1	1	-13.941386893906511	-30.28363141583195	69.09103114088099	0	0	0
332	1	1	-12.979694960726956	-30.00950447653916	69.09277665265034	0	0	0
333	1	1	-12.018003027547401	-29.87395266442763	69.33105030182425	0	0	0
334	1	1	-11.056311094367846	-29.59982572513484	69.3327958135936	0	0	0
335	1	1	-10.094619161188291	-29.46427391302331	69.57106946276751	0	0	0
336	1	1	-9.132927228008736	-29.190146973730517	69.57281497453687	0	0	0
337	1	1	-8.17123529482918	-29.054595161618987	69.81108862371077	0	0	0
338	1	1	-7.209543361649626	-28.780468222326196	69.81283413548013	0	0	0
339	1	1	-6.247851428470071	-28.644916410214666	70.05110778465404	0	0	0
340	1	1	-5.286159495290516	-28.370789470921874	70.0528532964234	0	0	0
341	1	1	-4.324467562110961	-28.235237658810345	70.2911269455973	0	0	0
342	1	1	-3.3627756289314057	-27.961110719517553	70.29287245736666	0	0	0
343	1	1	-2.4010836957518507	-27.825558907406023	70.53114610654056	0	0	0
344	1	1	-1.4393917625722958	-27.55143196811323	70.53289161830992	0	0	0
345	1	1	-0.477699829392741	-27.415880156001702	70.77116526748382	0	0	0
346	1	1	0.4839921037868138	-27.14175321670891	70.77291077925318	0	0	0
347	1	1	1.4456840369663686	-27.00620140459738	71.01118442842709	0	0	0
348	1	1	2.4073759701459236	-26.73207446530459	71.01292994019644	0	0	0
349	1	1	3.3690679033254787	-26.59652265319306	71.25120358937035	0	0	0
350	1	1	4.330759836505034	-26.322395713900267	71.2529491011397	0	0	0
351	1	1	5.292451769684589	-26.186843901788738	71.49122275031361	0	0	0
352	1	1	6.254143702864144	-25.912716962495946	71.49296826208297	0	0	0
353	1	1	7.215835636043699	-25.777165150384416	71.73124191125687	0	0	0
354	1	1	8.177527569223253	-25.503038211091624	71.73298742302623	0	0	0
355	1	1	9.139219502402808	-25.367486398980095	71.97126107220014	0	0	0
356	1	1	10.100911435582363	-25.093359459687303	71.9730065839695	0	0	0
357	1	1	11.062603368761918	-24.957807647575773	72.2112802331434	0	0	0
358	1	1	12.024295301941473	-24.68368070828298	72.21302574491276	0	0	0
359	1	1	12.985987235121028	-24.548128896171452	72.45129939408666	0	0	0
360	1	1	13.947679168300583	-24.27400195687866	72.45304490585602	0	0	0
361	1	1	14.909371101480138	-24.13845014476713	72.69131855502992	0	0	0
362	1	1	15.871063034659693	-23.86432320547434	72.69306406679928	0	0	0
363	1	1	16.832754967839247	-23.72877139336281	72.93133771597319	0	0	0
364	1	1	-21.915176297906385	-32.555092392257436	68.68121702663602	0	0	0
365	1	1	-22.195430236469825	-33.47917406717665	68.94108389254657	0	0	0
366	1	1	-22.475684175033265	-33.71616359715588	69.87129553115356	0	0	0
367	1	1	-22.755938113596706	-34.64024527207509	70.13116239706412	0	0	0
368	1	1	-23.036192052160146	-34.87723480205432	71.06137403567111	0	0	0
369	1	1	-23.316445990723587	-35.80131647697353	71.32124090158166	0	0	0
370	1	1	-23.596699929287027	-36.03830600695276	72.25145254018865	0	0	0
371	1	1	-23.876953867850467	-36.962387681871974	72.5113194060992	0	0	0
372	1	1	-24.157207806413908	-37.1993772118512	73.4415310447062	0	0	0
373	1	1	-24.437461744977348	-38.123458886770415	73.70139791061675	0	0	0
374	1	1	-24.71771568354079	-38.36044841674964	74.63160954922374	0	0	0
375	1	1	-24.99796962210423	-39.284530091668856	74.89147641513429	0	0	0
376	1	1	-25.27822356066767	-39.52151962164808	75.82168805374128	0	0	0
377	1	1	-25.55847749923111	-40.4456012965673	76.08155491965184	0	0	0
378	1	1	-25.83873143779455	-40.68259082654652	77.01176655825883	0	0	0
379	1	1	-26.11898537635799	-41.60667250146574	77.27163342416938	0	0	0
380	1	1	-26.39923931492143	-41.843662031444964	78.20184506277637	0	0	0
381	1	1	-26.67949325348487	-42.76774370636418	78.46171192868692	0	0	0
382	1	1	-26.95974719204831	-43.004733236343405	79.39192356729392	0	0	0
383	1	1	-27.240001130611752	-43.92881491126262	79.65179043320447	0	0	0
384	1	1	-27.520255069175192	-44.165804441241846	80.58200207181146	0	0	0
385	1	1	-27.800509007738633	-45.08988611616106	80.84186893772201	0	0	0
386	1	1	-28.080762946302073	-45.32687564614029	81.772080576329	0	0	0
387	1	1	-28.361016884865514	-46.2509573210595	82.03194744223956	0	0	0
388	1	1	-28.641270823428954	-46.48794685103873	82.96215908084655	0	0	0
389	1	1	-28.921524761992394	-47.41202852595794	83.2220259467571	0	0	0
390	1	1	-29.201778700555835	-47.64901805593717	84.15223758536409	0	0	0
391	1	1	-29.482032639119275	-48.573099730856384	84.41210445127464	0	0	0
392	1	1	-29.762286577682715	-48.81008926083561	85.34231608988163	0	0	0
393	1	1	-30.042540516246156	-49.734170935754825	85.60218295579219	0	0	0
394	1	1	-30.322794454809596	-49.97116046573405	86.53239459439918	0	0	0
395	1	1	-30.603048393373037	-50.89524214065327	86.79226146030973	0	0	0
396	1	1	-30.883302331936477	-51.13223167063249	87.72247309891672	0	0	0
397	1	1	-31.163556270499917	-52.05631334555171	87.98233996482728	0	0	0
398	1	1	-31.443810209063358	-52.293302875530934	88.91255160343427	0	0	0
399	1	1	-31.724064147626798	-53.21738455045015	89.17241846934482	0	0	0
400	1	1	-32.00431808619024	-53.454374080429375	90.10263010795181	0	0	0
401	1	1	-32.28457202475368	-54.37845575534859	90.36249697386236	0	0	0
402	1	1	-32.56482596331712	-54.615445285327816	91.29270861246935	0	0	0
403	1	1	-32.84507990188056	-55.53952696024703	91.55257547837991	0	0	0
404	1	1	-33.125333840444	-55.77651649022626	92.4827871169869	0	0	0
405	1	1	-32.49918299434139	-55.35382631675218	93.13797269006787	0	0	0
406	1	1	-31.87303214823878	-55.31535867513407	93.9167251272861	0	0	0
407	1	1	-31.246881302136174	-54.62170546043499	94.27278739103025	0	0	0
408	1	1	-30.620730456033566	-54.583237818816876	95.05153982824848	0	0	0
409	1	1	-29.99457960993096	-53.88958460411779	95.40760209199263	0	0	0
410	1	1	-29.36842876382835	-53.85111696249968	96.18635452921086	0	0	0
411	1	1	-28.742277917725744	-53.1574637478006	96.54241679295501	0	0	0
412	1	1	-28.116127071623136	-53.118996106182486	97.32116923017324	0	0	0
413	1	1	-27.48997622552053	-52.4253428914834	97.67723149391739	0	0	0
414	1	1	-26.86382537941792	-52.38687524986529	98.45598393113562	0	0	0
415	1	1	-26.237674533315314	-51.69322203516621	98.81204619487977	0	0	0
416	1	1	-25.611523687212706	-51.654754393548096	99.590798632098	0	0	0
417	1	1	-24.9853728411101	-50.96110117884901	99.94686089584215	0	0	0
418	1	1	-24.35922199500749	-50.9226335372309	100.72561333306038	0	0	0
419	1	1	-23.733071148904884	-50.22898032253182	101.08167559680453	0	0	0
420	1	1	-23.106920302802276	-50.190512680913706	101.86042803402276	0	0	0
421	1	1	-22.48076945669967	-49.49685946621462	102.21649029776691	0	0	0
422	1	1	-21.85461861059706	-49.45839182459651	102.99524273498514	0	0	0
423	1	1	-21.228467764494454	-48.76473860989743	103.35130499872929	0	0	0
424	1	1	-20.602316918391846	-48.726270968279316	104.13005743594752	0	0	0
425	1	1	-19.97616607228924	-48.03261775358023	104.48611969969167	0	0	0
426	1	1	-19.35001522618663	-47.99415011196212	105.2648721369099	0	0	0
427	1	1	-18.723864380084024	-47.30049689726304	105.62093440065405	0	0	0
428	1	1	-18.097713533981416	-47.262029255644926	106.39968683787228	0	0	0
429	1	1	-17.47156268787881	-46.56837604094584	106.75574910161643	0	0	0
430	1	1	-16.8454118417762	-46.52990839932773	107.53450153883466	0	0	0
431	1	1	-16.219260995673594	-45.83625518462865	107.89056380257881	0	0	0
432	1	1	-15.593110149570986	-45.797787543010536	108.66931623979704	0	0	0
433	1	1	-14.966959303468379	-45.10413432831145	109.02537850354119	0	0	0
434	1	1	-14.340808457365771	-45.06566668669334	109.80413094075942	0	0	0
435	1	1	-13.714657611263164	-44.37201347199426	110.16019320450357	0	0	0