bb363nuc7bl45bn4d30tot1000V2

991 atoms
990 bonds
1010 angles

1 atom types
1 bond types
1 angle types

-1000 1000 xlo xhi
-1000 1000 ylo yhi
-1000 1000 zlo zhi

Masses

1 1

Atoms

1	1	1	0.0	0.0	0.0	0	0	0
2	1	1	0.0	0.0	1.0	0	0	0
3	1	1	0.0	-0.49999999999999994	1.8660254037844388	0	0	0
4	1	1	0.0	0.0	2.7320508075688776	0	0	0
5	1	1	0.0	-0.49999999999999994	3.5980762113533165	0	0	0
6	1	1	0.0	0.0	4.464101615137755	0	0	0
7	1	1	0.0	-0.49999999999999994	5.330127018922194	0	0	0
8	1	1	0.0	0.0	6.196152422706632	0	0	0
9	1	1	0.0	-0.49999999999999994	7.06217782649107	0	0	0
10	1	1	0.0	0.0	7.928203230275509	0	0	0
11	1	1	0.0	-0.49999999999999994	8.794228634059948	0	0	0
12	1	1	0.0	0.0	9.660254037844387	0	0	0
13	1	1	0.0	-0.49999999999999994	10.526279441628827	0	0	0
14	1	1	0.0	0.0	11.392304845413266	0	0	0
15	1	1	0.0	-0.49999999999999994	12.258330249197705	0	0	0
16	1	1	0.0	0.0	13.124355652982144	0	0	0
17	1	1	0.0	-0.49999999999999994	13.990381056766584	0	0	0
18	1	1	0.0	0.0	14.856406460551023	0	0	0
19	1	1	0.0	-0.49999999999999994	15.722431864335462	0	0	0
20	1	1	0.0	0.0	16.5884572681199	0	0	0
21	1	1	0.0	-0.49999999999999994	17.454482671904337	0	0	0
22	1	1	0.0	0.0	18.320508075688775	0	0	0
23	1	1	0.0	-0.49999999999999994	19.186533479473212	0	0	0
24	1	1	0.0	0.0	20.05255888325765	0	0	0
25	1	1	0.0	-0.49999999999999994	20.918584287042087	0	0	0
26	1	1	0.0	0.0	21.784609690826525	0	0	0
27	1	1	0.0	-0.49999999999999994	22.650635094610962	0	0	0
28	1	1	0.0	0.0	23.5166604983954	0	0	0
29	1	1	0.0	-0.49999999999999994	24.382685902179837	0	0	0
30	1	1	0.0	0.0	25.248711305964274	0	0	0
31	1	1	0.0	-0.49999999999999994	26.114736709748712	0	0	0
32	1	1	0.0	0.0	26.98076211353315	0	0	0
33	1	1	0.0	-0.49999999999999994	27.846787517317587	0	0	0
34	1	1	0.0	0.0	28.712812921102024	0	0	0
35	1	1	0.0	-0.49999999999999994	29.578838324886462	0	0	0
36	1	1	0.0	0.0	30.4448637286709	0	0	0
37	1	1	0.0	-0.49999999999999994	31.310889132455337	0	0	0
38	1	1	0.0	0.0	32.17691453623978	0	0	0
39	1	1	0.0	-0.49999999999999994	33.04293994002422	0	0	0
40	1	1	0.0	0.0	33.90896534380866	0	0	0
41	1	1	0.0	-0.49999999999999994	34.7749907475931	0	0	0
42	1	1	0.0	0.0	35.64101615137754	0	0	0
43	1	1	0.0	-0.49999999999999994	36.50704155516198	0	0	0
44	1	1	0.0	0.0	37.373066958946424	0	0	0
45	1	1	0.0	-0.49999999999999994	38.239092362730865	0	0	0
46	1	1	0.0	0.0	39.105117766515306	0	0	0
47	1	1	-0.8768976822794007	-0.13262549495656614	39.56713609180181	0	0	0
48	1	1	-1.7537953645587996	-0.4784917054216884	39.900942951035574	0	0	0
49	1	1	-2.6306930468381986	-0.3623395906003082	40.36737530522591	0	0	0
50	1	1	-3.5075907291175974	-0.7082058010654304	40.70118216445968	0	0	0
51	1	1	-4.384488411396997	-0.5920536862440502	41.16761451865002	0	0	0
52	1	1	-5.261386093676395	-0.9379198967091724	41.50142137788379	0	0	0
53	1	1	-6.138283775955794	-0.8217677818877922	41.967853732074126	0	0	0
54	1	1	-7.015181458235193	-1.1676339923529144	42.30166059130789	0	0	0
55	1	1	-7.892079140514592	-1.0514818775315342	42.76809294549823	0	0	0
56	1	1	-8.768976822793991	-1.3973480879966564	43.101899804732	0	0	0
57	1	1	-9.64587450507339	-1.2811959731752762	43.56833215892234	0	0	0
58	1	1	-10.522772187352789	-1.6270621836403985	43.902139018156106	0	0	0
59	1	1	-11.399669869632188	-1.5109100688190182	44.368571372346445	0	0	0
60	1	1	-12.276567551911587	-1.8567762792841405	44.70237823158021	0	0	0
61	1	1	-13.153465234190985	-1.7406241644627602	45.16881058577055	0	0	0
62	1	1	-14.030362916470384	-2.0864903749278825	45.50261744500432	0	0	0
63	1	1	-14.907260598749783	-1.9703382601065023	45.96904979919466	0	0	0
64	1	1	-15.784158281029182	-2.3162044705716243	46.302856658428425	0	0	0
65	1	1	-16.66105596330858	-2.2000523557502443	46.76928901261876	0	0	0
66	1	1	-17.53795364558798	-2.5459185662153665	47.10309587185253	0	0	0
67	1	1	-18.414851327867378	-2.4297664513939865	47.56952822604287	0	0	0
68	1	1	-19.291749010146777	-2.7756326618591087	47.90333508527664	0	0	0
69	1	1	-20.168646692426176	-2.6594805470377287	48.369767439466976	0	0	0
70	1	1	-21.045544374705575	-3.005346757502851	48.703574298700744	0	0	0
71	1	1	-21.922442056984973	-2.889194642681471	49.17000665289108	0	0	0
72	1	1	-22.799339739264372	-3.235060853146593	49.50381351212485	0	0	0
73	1	1	-23.67623742154377	-3.118908738325213	49.97024586631519	0	0	0
74	1	1	-24.55313510382317	-3.4647749487903354	50.30405272554896	0	0	0
75	1	1	-25.43003278610257	-3.3486228339689554	50.770485079739295	0	0	0
76	1	1	-26.306930468381967	-3.6944890444340777	51.10429193897306	0	0	0
77	1	1	-27.183828150661366	-3.5783369296126977	51.5707242931634	0	0	0
78	1	1	-28.060725832940765	-3.92420314007782	51.90453115239717	0	0	0
79	1	1	-28.937623515220164	-3.80805102525644	52.37096350658751	0	0	0
80	1	1	-29.814521197499563	-4.153917235721562	52.704770365821275	0	0	0
81	1	1	-30.69141887977896	-4.037765120900182	53.171202720011614	0	0	0
82	1	1	-31.56831656205836	-4.383631331365304	53.50500957924538	0	0	0
83	1	1	-32.44521424433776	-4.267479216543924	53.97144193343572	0	0	0
84	1	1	-33.32211192661716	-4.613345427009046	54.30524879266949	0	0	0
85	1	1	-34.19900960889656	-4.497193312187665	54.77168114685983	0	0	0
86	1	1	-35.07590729117596	-4.843059522652787	55.105488006093594	0	0	0
87	1	1	-35.95280497345536	-4.726907407831407	55.57192036028393	0	0	0
88	1	1	-36.829702655734756	-5.072773618296528	55.9057272195177	0	0	0
89	1	1	-37.706600338014155	-4.956621503475148	56.37215957370804	0	0	0
90	1	1	-38.583498020293554	-5.30248771394027	56.70596643294181	0	0	0
91	1	1	-39.46039570257295	-5.186335599118889	57.172398787132146	0	0	0
92	1	1	0.1389199165662529	0.9743411536131616	38.92802859926614	0	0	0
93	1	1	0.27783983313250554	1.9066899282193763	39.26183545849992	0	0	0
94	1	1	0.4167597496987582	2.6619495355764267	38.62130116412053	0	0	0
95	1	1	0.5556796662650108	3.5942983101826416	38.955108023354306	0	0	0
96	1	1	0.6945995828312634	4.349557917539692	38.31457372897492	0	0	0
97	1	1	0.8335194993975161	5.281906692145907	38.648380588208695	0	0	0
98	1	1	0.9724394159637688	6.037166299502958	38.00784629382931	0	0	0
99	1	1	1.1113593325300215	6.9695150741091725	38.341653153063085	0	0	0
100	1	1	1.2502792490962742	7.724774681466223	37.7011188586837	0	0	0
101	1	1	1.3891991656625269	8.657123456072437	38.034925717917474	0	0	0
102	1	1	1.5281190822287796	9.412383063429488	37.39439142353809	0	0	0
103	1	1	1.6670389987950323	10.344731838035703	37.728198282771864	0	0	0
104	1	1	1.805958915361285	11.099991445392753	37.08766398839248	0	0	0
105	1	1	1.9448788319275376	12.032340219998968	37.42147084762625	0	0	0
106	1	1	2.0837987484937903	12.787599827356019	36.78093655324687	0	0	0
107	1	1	2.222718665060043	13.719948601962233	37.11474341248064	0	0	0
108	1	1	2.3616385816262957	14.475208209319284	36.47420911810126	0	0	0
109	1	1	2.5005584981925484	15.407556983925499	36.80801597733503	0	0	0
110	1	1	2.639478414758801	16.16281659128255	36.167481682955646	0	0	0
111	1	1	2.7783983313250538	17.095165365888764	36.50128854218942	0	0	0
112	1	1	2.9173182478913064	17.850424973245815	35.860754247810036	0	0	0
113	1	1	3.056238164457559	18.78277374785203	36.19456110704381	0	0	0
114	1	1	3.195158081023812	19.53803335520908	35.554026812664425	0	0	0
115	1	1	3.3340779975900645	20.470382129815295	35.8878336718982	0	0	0
116	1	1	3.472997914156317	21.225641737172346	35.247299377518814	0	0	0
117	1	1	3.61191783072257	22.15799051177856	35.58110623675259	0	0	0
118	1	1	3.7508377472888226	22.91325011913561	34.940571942373204	0	0	0
119	1	1	3.8897576638550753	23.845598893741826	35.27437880160698	0	0	0
120	1	1	4.028677580421328	24.600858501098877	34.63384450722759	0	0	0
121	1	1	4.167597496987581	25.53320727570509	34.96765136646137	0	0	0
122	1	1	4.306517413553833	26.288466883062142	34.32711707208198	0	0	0
123	1	1	4.445437330120086	27.220815657668357	34.66092393131576	0	0	0
124	1	1	4.584357246686339	27.976075265025408	34.02038963693637	0	0	0
125	1	1	4.723277163252591	28.908424039631623	34.35419649617015	0	0	0
126	1	1	4.862197079818844	29.663683646988673	33.71366220179076	0	0	0
127	1	1	5.001116996385097	30.596032421594888	34.047469061024536	0	0	0
128	1	1	5.1400369129513495	31.35129202895194	33.40693476664515	0	0	0
129	1	1	5.278956829517602	32.28364080355815	33.740741625878925	0	0	0
130	1	1	5.417876746083855	33.0389004109152	33.10020733149954	0	0	0
131	1	1	5.5567966626501075	33.97124918552141	33.434014190733315	0	0	0
132	1	1	5.69571657921636	34.726508792878455	32.79347989635393	0	0	0
133	1	1	5.834636495782613	35.65885756748467	33.127286755587704	0	0	0
134	1	1	5.973556412348866	36.414117174841714	32.48675246120832	0	0	0
135	1	1	6.112476328915118	37.346465949447925	32.820559320442094	0	0	0
136	1	1	6.251396245481371	38.10172555680497	32.18002502606271	0	0	0
137	1	1	0.7379777657131467	-0.34100536980594515	39.6874442686398	0	0	0
138	1	1	1.4759555314262918	-0.9274879339470457	40.02125112787357	0	0	0
139	1	1	2.213933297139437	-0.9316439959636549	40.696063356913285	0	0	0
140	1	1	2.951911062852582	-1.5181265601047556	41.02987021614705	0	0	0
141	1	1	3.6898888285657274	-1.5222826221213648	41.70468244518677	0	0	0
142	1	1	4.427866594278873	-2.1087651862624655	42.03848930442054	0	0	0
143	1	1	5.165844359992018	-2.1129212482790747	42.71330153346025	0	0	0
144	1	1	5.9038221257051635	-2.6994038124201754	43.04710839269402	0	0	0
145	1	1	6.641799891418309	-2.7035598744367846	43.72192062173374	0	0	0
146	1	1	7.379777657131454	-3.2900424385778853	44.055727480967505	0	0	0
147	1	1	8.1177554228446	-3.2941985005944945	44.73053971000722	0	0	0
148	1	1	8.855733188557744	-3.880681064735595	45.06434656924099	0	0	0
149	1	1	9.59371095427089	-3.8848371267522044	45.739158798280705	0	0	0
150	1	1	10.331688719984035	-4.471319690893305	46.07296565751447	0	0	0
151	1	1	11.06966648569718	-4.475475752909914	46.74777788655419	0	0	0
152	1	1	11.807644251410325	-5.0619583170510145	47.08158474578796	0	0	0
153	1	1	12.54562201712347	-5.066114379067624	47.75639697482767	0	0	0
154	1	1	13.283599782836616	-5.652596943208724	48.09020383406144	0	0	0
155	1	1	14.021577548549761	-5.656753005225334	48.76501606310116	0	0	0
156	1	1	14.759555314262906	-6.243235569366434	49.098822922334925	0	0	0
157	1	1	15.497533079976051	-6.247391631383044	49.77363515137464	0	0	0
158	1	1	16.2355108456892	-6.833874195524144	50.10744201060841	0	0	0
159	1	1	16.973488611402345	-6.838030257540754	50.782254239648125	0	0	0
160	1	1	17.711466377115492	-7.424512821681854	51.11606109888189	0	0	0
161	1	1	18.44944414282864	-7.428668883698464	51.79087332792161	0	0	0
162	1	1	19.187421908541786	-8.015151447839564	52.12468018715538	0	0	0
163	1	1	19.925399674254933	-8.019307509856173	52.79949241619509	0	0	0
164	1	1	20.66337743996808	-8.605790073997273	53.13329927542886	0	0	0
165	1	1	21.401355205681227	-8.609946136013882	53.80811150446858	0	0	0
166	1	1	22.139332971394374	-9.196428700154982	54.141918363702345	0	0	0
167	1	1	22.87731073710752	-9.20058476217159	54.81673059274206	0	0	0
168	1	1	23.61528850282067	-9.787067326312691	55.15053745197583	0	0	0
169	1	1	24.353266268533815	-9.7912233883293	55.825349681015545	0	0	0
170	1	1	25.091244034246962	-10.3777059524704	56.15915654024931	0	0	0
171	1	1	25.82922179996011	-10.381862014487009	56.83396876928903	0	0	0
172	1	1	26.567199565673256	-10.968344578628109	57.1677756285228	0	0	0
173	1	1	27.305177331386403	-10.972500640644718	57.84258785756251	0	0	0
174	1	1	28.04315509709955	-11.558983204785818	58.17639471679628	0	0	0
175	1	1	28.781132862812697	-11.563139266802427	58.851206945836	0	0	0
176	1	1	29.519110628525844	-12.149621830943527	59.185013805069765	0	0	0
177	1	1	30.25708839423899	-12.153777892960136	59.85982603410948	0	0	0
178	1	1	30.995066159952138	-12.740260457101236	60.19363289334325	0	0	0
179	1	1	31.733043925665285	-12.744416519117845	60.868445122382965	0	0	0
180	1	1	32.47102169137843	-13.330899083258945	61.20225198161673	0	0	0
181	1	1	33.20899945709158	-13.335055145275554	61.87706421065645	0	0	0
182	1	1	33.191243534499584	-14.19576666660488	62.38584746928812	0	0	0
183	1	1	33.17348761190759	-15.195556338721865	62.39611093561872	0	0	0
184	1	1	33.155731689315594	-15.686562752207173	63.26708592327864	0	0	0
185	1	1	33.1379757667236	-16.68635242432416	63.27734938960924	0	0	0
186	1	1	33.120219844131604	-17.177358837809468	64.14832437726916	0	0	0
187	1	1	33.10246392153961	-18.177148509926454	64.15858784359976	0	0	0
188	1	1	33.084707998947614	-18.668154923411763	65.02956283125968	0	0	0
189	1	1	33.06695207635562	-19.66794459552875	65.03982629759028	0	0	0
190	1	1	33.049196153763624	-20.158951009014057	65.9108012852502	0	0	0
191	1	1	33.03144023117163	-21.158740681131043	65.9210647515808	0	0	0
192	1	1	33.013684308579634	-21.64974709461635	66.79203973924072	0	0	0
193	1	1	32.99592838598764	-22.649536766733338	66.80230320557132	0	0	0
194	1	1	32.978172463395644	-23.140543180218646	67.67327819323124	0	0	0
195	1	1	32.96041654080365	-24.140332852335632	67.68354165956184	0	0	0
196	1	1	32.942660618211654	-24.63133926582094	68.55451664722176	0	0	0
197	1	1	32.92490469561966	-25.631128937937927	68.56478011355236	0	0	0
198	1	1	32.907148773027664	-26.122135351423236	69.43575510121228	0	0	0
199	1	1	32.88939285043567	-27.12192502354022	69.44601856754288	0	0	0
200	1	1	32.871636927843674	-27.61293143702553	70.3169935552028	0	0	0
201	1	1	32.85388100525168	-28.612721109142516	70.3272570215334	0	0	0
202	1	1	32.836125082659684	-29.103727522627825	71.19823200919332	0	0	0
203	1	1	32.81836916006769	-30.10351719474481	71.20849547552392	0	0	0
204	1	1	32.800613237475694	-30.59452360823012	72.07947046318384	0	0	0
205	1	1	32.7828573148837	-31.594313280347105	72.08973392951444	0	0	0
206	1	1	32.765101392291704	-32.08531969383242	72.96070891717436	0	0	0
207	1	1	32.74734546969971	-33.0851093659494	72.97097238350496	0	0	0
208	1	1	32.729589547107715	-33.57611577943471	73.84194737116488	0	0	0
209	1	1	32.71183362451572	-34.57590545155169	73.85221083749548	0	0	0
210	1	1	32.694077701923725	-35.066911865037	74.7231858251554	0	0	0
211	1	1	32.67632177933173	-36.06670153715398	74.733449291486	0	0	0
212	1	1	32.658565856739735	-36.55770795063929	75.60442427914592	0	0	0
213	1	1	32.64080993414774	-37.55749762275627	75.61468774547652	0	0	0
214	1	1	32.623054011555745	-38.04850403624158	76.48566273313644	0	0	0
215	1	1	32.60529808896375	-39.048293708358564	76.49592619946704	0	0	0
216	1	1	32.587542166371755	-39.53930012184387	77.36690118712696	0	0	0
217	1	1	32.56978624377976	-40.539089793960855	77.37716465345756	0	0	0
218	1	1	32.552030321187765	-41.030096207446164	78.24813964111748	0	0	0
219	1	1	32.53427439859577	-42.029885879563146	78.25840310744807	0	0	0
220	1	1	32.516518476003775	-42.520892293048455	79.129378095108	0	0	0
221	1	1	32.49876255341178	-43.52068196516544	79.1396415614386	0	0	0
222	1	1	32.481006630819785	-44.011688378650746	80.01061654909851	0	0	0
223	1	1	32.46325070822779	-45.01147805076773	80.02088001542911	0	0	0
224	1	1	32.445494785635795	-45.50248446425304	80.89185500308903	0	0	0
225	1	1	32.4277388630438	-46.50227413637002	80.90211846941963	0	0	0
226	1	1	32.409982940451805	-46.99328054985533	81.77309345707955	0	0	0
227	1	1	33.086218004671785	-12.571236533302775	62.510709097754635	0	0	0
228	1	1	32.96343655225199	-12.226572655000071	63.441370972946174	0	0	0
229	1	1	32.8406550998322	-11.248263889599187	63.60821423616493	0	0	0
230	1	1	32.717873647412404	-10.903600011296483	64.53887611135647	0	0	0
231	1	1	32.59509219499261	-9.925291245895599	64.70571937457522	0	0	0
232	1	1	32.472310742572816	-9.580627367592895	65.63638124976676	0	0	0
233	1	1	32.34952929015302	-8.60231860219201	65.80322451298551	0	0	0
234	1	1	32.22674783773323	-8.257654723889306	66.73388638817704	0	0	0
235	1	1	32.103966385313434	-7.279345958488422	66.90072965139579	0	0	0
236	1	1	31.981184932893644	-6.934682080185719	67.83139152658732	0	0	0
237	1	1	31.858403480473854	-5.956373314784835	67.99823478980608	0	0	0
238	1	1	31.735622028054063	-5.611709436482132	68.92889666499761	0	0	0
239	1	1	31.612840575634273	-4.633400671081247	69.09573992821636	0	0	0
240	1	1	31.490059123214483	-4.288736792778544	70.0264018034079	0	0	0
241	1	1	31.367277670794692	-3.31042802737766	70.19324506662664	0	0	0
242	1	1	31.244496218374902	-2.965764149074957	71.12390694181818	0	0	0
243	1	1	31.12171476595511	-1.9874553836740725	71.29075020503693	0	0	0
244	1	1	30.99893331353532	-1.642791505371369	72.22141208022846	0	0	0
245	1	1	30.87615186111553	-0.6644827399704847	72.38825534344721	0	0	0
246	1	1	30.75337040869574	-0.3198188616677813	73.31891721863875	0	0	0
247	1	1	30.63058895627595	0.6584899037331031	73.4857604818575	0	0	0
248	1	1	30.50780750385616	1.0031537820358065	74.41642235704903	0	0	0
249	1	1	30.38502605143637	1.981462547436691	74.58326562026778	0	0	0
250	1	1	30.26224459901658	2.3261264257393943	75.51392749545931	0	0	0
251	1	1	30.13946314659679	3.3044351911402785	75.68077075867807	0	0	0
252	1	1	30.016681694177	3.6490990694429817	76.6114326338696	0	0	0
253	1	1	29.89390024175721	4.627407834843866	76.77827589708835	0	0	0
254	1	1	29.771118789337418	4.972071713146569	77.70893777227988	0	0	0
255	1	1	29.648337336917628	5.950380478547453	77.87578103549863	0	0	0
256	1	1	29.525555884497837	6.295044356850156	78.80644291069017	0	0	0
257	1	1	29.402774432078047	7.273353122251041	78.97328617390892	0	0	0
258	1	1	29.279992979658257	7.618017000553744	79.90394804910045	0	0	0
259	1	1	29.157211527238466	8.596325765954628	80.0707913123192	0	0	0
260	1	1	29.034430074818676	8.940989644257332	81.00145318751073	0	0	0
261	1	1	28.911648622398886	9.919298409658216	81.16829645072949	0	0	0
262	1	1	28.788867169979095	10.26396228796092	82.09895832592102	0	0	0
263	1	1	28.666085717559305	11.242271053361804	82.26580158913977	0	0	0
264	1	1	28.543304265139515	11.586934931664508	83.1964634643313	0	0	0
265	1	1	28.420522812719724	12.565243697065393	83.36330672755005	0	0	0
266	1	1	28.297741360299934	12.909907575368097	84.29396860274159	0	0	0
267	1	1	28.174959907880144	13.888216340768981	84.46081186596034	0	0	0
268	1	1	28.052178455460353	14.232880219071685	85.39147374115187	0	0	0
269	1	1	27.929397003040563	15.21118898447257	85.55831700437062	0	0	0
270	1	1	27.806615550620773	15.555852862775273	86.48897887956215	0	0	0
271	1	1	27.683834098200983	16.534161628176157	86.6558221427809	0	0	0
272	1	1	34.08856295257455	-13.242324201944648	61.41040691717145	0	0	0
273	1	1	34.96812644805752	-12.92868820256069	61.052635317817604	0	0	0
274	1	1	35.84768994354049	-13.081709496661729	60.60213277513285	0	0	0
275	1	1	36.72725343902346	-12.768073497277769	60.244361175779005	0	0	0
276	1	1	37.606816934506426	-12.921094791378808	59.79385863309425	0	0	0
277	1	1	38.486380429989396	-12.607458791994848	59.43608703374041	0	0	0
278	1	1	39.365943925472365	-12.760480086095887	58.985584491055654	0	0	0
279	1	1	40.245507420955335	-12.446844086711927	58.62781289170181	0	0	0
280	1	1	41.125070916438304	-12.599865380812966	58.177310349017056	0	0	0
281	1	1	42.00463441192127	-12.286229381429006	57.81953874966321	0	0	0
282	1	1	42.88419790740424	-12.439250675530046	57.36903620697846	0	0	0
283	1	1	43.76376140288721	-12.125614676146085	57.01126460762461	0	0	0
284	1	1	44.64332489837018	-12.278635970247125	56.56076206493986	0	0	0
285	1	1	45.52288839385315	-11.964999970863165	56.20299046558601	0	0	0
286	1	1	46.40245188933612	-12.118021264964204	55.75248792290126	0	0	0
287	1	1	47.28201538481909	-11.804385265580244	55.394716323547414	0	0	0
288	1	1	48.16157888030206	-11.957406559681283	54.94421378086266	0	0	0
289	1	1	49.04114237578503	-11.643770560297323	54.586442181508815	0	0	0
290	1	1	49.920705871268	-11.796791854398363	54.13593963882406	0	0	0
291	1	1	50.80026936675097	-11.483155855014402	53.778168039470216	0	0	0
292	1	1	51.67983286223394	-11.636177149115442	53.327665496785464	0	0	0
293	1	1	52.559396357716906	-11.322541149731482	52.96989389743162	0	0	0
294	1	1	53.438959853199876	-11.475562443832521	52.519391354746865	0	0	0
295	1	1	54.318523348682845	-11.16192644444856	52.16161975539302	0	0	0
296	1	1	55.198086844165815	-11.3149477385496	51.71111721270827	0	0	0
297	1	1	56.077650339648784	-11.00131173916564	51.35334561335442	0	0	0
298	1	1	56.95721383513175	-11.15433303326668	50.90284307066967	0	0	0
299	1	1	57.83677733061472	-10.84069703388272	50.54507147131582	0	0	0
300	1	1	58.71634082609769	-10.993718327983759	50.09456892863107	0	0	0
301	1	1	59.59590432158066	-10.680082328599799	49.73679732927722	0	0	0
302	1	1	60.47546781706363	-10.833103622700838	49.28629478659247	0	0	0
303	1	1	61.3550313125466	-10.519467623316878	48.928523187238625	0	0	0
304	1	1	62.23459480802957	-10.672488917417917	48.47802064455387	0	0	0
305	1	1	63.11415830351254	-10.358852918033957	48.120249045200026	0	0	0
306	1	1	63.99372179899551	-10.511874212134996	47.669746502515274	0	0	0
307	1	1	64.87328529447848	-10.198238212751036	47.31197490316143	0	0	0
308	1	1	65.75284878996145	-10.351259506852076	46.861472360476675	0	0	0
309	1	1	66.63241228544442	-10.037623507468115	46.50370076112283	0	0	0
310	1	1	67.51197578092739	-10.190644801569155	46.05319821843808	0	0	0
311	1	1	68.39153927641036	-9.877008802185195	45.69542661908423	0	0	0
312	1	1	69.27110277189333	-10.030030096286234	45.24492407639948	0	0	0
313	1	1	70.1506662673763	-9.716394096902274	44.88715247704563	0	0	0
314	1	1	71.03022976285926	-9.869415391003313	44.43664993436088	0	0	0
315	1	1	71.90979325834223	-9.555779391619353	44.07887833500703	0	0	0
316	1	1	72.7893567538252	-9.708800685720393	43.62837579232228	0	0	0
317	1	1	73.24952085744768	-8.832125130790999	43.48805840520805	0	0	0
318	1	1	73.70968496107015	-8.00274313578821	43.80487776083917	0	0	0
319	1	1	74.16984906469263	-7.3136785278996514	43.245021561540895	0	0	0
320	1	1	74.6300131683151	-6.484296532896862	43.56184091717201	0	0	0
321	1	1	75.09017727193758	-5.795231925008304	43.00198471787374	0	0	0
322	1	1	75.55034137556005	-4.965849930005515	43.31880407350486	0	0	0
323	1	1	76.01050547918253	-4.2767853221169565	42.758947874206584	0	0	0
324	1	1	76.470669582805	-3.447403327114167	43.0757672298377	0	0	0
325	1	1	76.93083368642748	-2.758338719225608	42.51591103053943	0	0	0
326	1	1	77.39099779004995	-1.9289567242228185	42.832730386170546	0	0	0
327	1	1	77.85116189367243	-1.2398921163342598	42.27287418687227	0	0	0
328	1	1	78.3113259972949	-0.41051012133147025	42.58969354250339	0	0	0
329	1	1	78.77149010091738	0.27855448655708837	42.029837343205116	0	0	0
330	1	1	79.23165420453985	1.1079364815598778	42.346656698836235	0	0	0
331	1	1	79.69181830816233	1.7970010894484365	41.78680049953796	0	0	0
332	1	1	80.1519824117848	2.626383084451226	42.10361985516908	0	0	0
333	1	1	80.61214651540728	3.315447692339785	41.543763655870805	0	0	0
334	1	1	81.07231061902975	4.1448296873425745	41.86058301150192	0	0	0
335	1	1	81.53247472265222	4.833894295231133	41.30072681220365	0	0	0
336	1	1	81.9926388262747	5.663276290233922	41.61754616783477	0	0	0
337	1	1	82.45280292989717	6.35234089812248	41.05768996853649	0	0	0
338	1	1	82.91296703351965	7.1817228931252695	41.37450932416761	0	0	0
339	1	1	83.37313113714212	7.870787501013828	40.81465312486934	0	0	0
340	1	1	83.8332952407646	8.700169496016617	41.131472480500456	0	0	0
341	1	1	84.29345934438707	9.389234103905176	40.57161628120218	0	0	0
342	1	1	84.75362344800955	10.218616098907965	40.8884356368333	0	0	0
343	1	1	85.21378755163202	10.907680706796524	40.328579437535026	0	0	0
344	1	1	85.6739516552545	11.737062701799314	40.645398793166144	0	0	0
345	1	1	86.13411575887697	12.426127309687873	40.08554259386787	0	0	0
346	1	1	86.59427986249945	13.255509304690662	40.40236194949899	0	0	0
347	1	1	87.05444396612192	13.944573912579221	39.842505750200715	0	0	0
348	1	1	87.5146080697444	14.77395590758201	40.15932510583183	0	0	0
349	1	1	87.97477217336687	15.46302051547057	39.59946890653356	0	0	0
350	1	1	88.43493627698935	16.29240251047336	39.91628826216468	0	0	0
351	1	1	88.89510038061182	16.981467118361916	39.3564320628664	0	0	0
352	1	1	89.3552644842343	17.810849113364707	39.67325141849752	0	0	0
353	1	1	89.81542858785677	18.499913721253264	39.11339521919925	0	0	0
354	1	1	90.27559269147925	19.329295716256055	39.430214574830366	0	0	0
355	1	1	90.73575679510172	20.018360324144613	38.87035837553209	0	0	0
356	1	1	91.1959208987242	20.847742319147404	39.18717773116321	0	0	0
357	1	1	91.65608500234667	21.53680692703596	38.627321531864936	0	0	0
358	1	1	92.11624910596915	22.366188922038752	38.944140887496054	0	0	0
359	1	1	92.57641320959162	23.05525352992731	38.38428468819778	0	0	0
360	1	1	93.0365773132141	23.8846355249301	38.7011040438289	0	0	0
361	1	1	93.49674141683657	24.573700132818658	38.141247844530625	0	0	0
362	1	1	72.63905425996685	-10.151109485590405	42.74419702878093	0	0	0
363	1	1	72.4887517661085	-10.092070760824567	41.7573213581324	0	0	0
364	1	1	72.33844927225016	-10.91721079960008	41.212754487353884	0	0	0
365	1	1	72.18814677839181	-10.858172074834242	40.225878816705354	0	0	0
366	1	1	72.03784428453346	-11.683312113609754	39.681311945926836	0	0	0
367	1	1	71.88754179067512	-11.624273388843916	38.694436275278306	0	0	0
368	1	1	71.73723929681677	-12.449413427619428	38.14986940449979	0	0	0
369	1	1	71.58693680295842	-12.39037470285359	37.16299373385126	0	0	0
370	1	1	71.43663430910007	-13.215514741629102	36.61842686307274	0	0	0
371	1	1	71.28633181524172	-13.156476016863264	35.63155119242421	0	0	0
372	1	1	71.13602932138338	-13.981616055638776	35.086984321645694	0	0	0
373	1	1	70.98572682752503	-13.922577330872938	34.100108650997164	0	0	0
374	1	1	70.83542433366668	-14.74771736964845	33.55554178021865	0	0	0
375	1	1	70.68512183980833	-14.688678644882613	32.56866610957012	0	0	0
376	1	1	70.53481934594998	-15.513818683658124	32.0240992387916	0	0	0
377	1	1	70.38451685209164	-15.454779958892287	31.03722356814307	0	0	0
378	1	1	70.23421435823329	-16.2799199976678	30.492656697364552	0	0	0
379	1	1	70.08391186437494	-16.220881272901963	29.505781026716022	0	0	0
380	1	1	69.93360937051659	-17.046021311677475	28.961214155937505	0	0	0
381	1	1	69.78330687665824	-16.986982586911637	27.974338485288975	0	0	0
382	1	1	69.6330043827999	-17.81212262568715	27.429771614510457	0	0	0
383	1	1	69.48270188894155	-17.75308390092131	26.442895943861927	0	0	0
384	1	1	69.3323993950832	-18.578223939696823	25.89832907308341	0	0	0
385	1	1	69.18209690122485	-18.519185214930985	24.91145340243488	0	0	0
386	1	1	69.0317944073665	-19.344325253706497	24.366886531656363	0	0	0
387	1	1	68.88149191350816	-19.28528652894066	23.380010861007833	0	0	0
388	1	1	68.73118941964981	-20.11042656771617	22.835443990229315	0	0	0
389	1	1	68.58088692579146	-20.051387842950334	21.848568319580785	0	0	0
390	1	1	68.43058443193311	-20.876527881725846	21.304001448802268	0	0	0
391	1	1	68.28028193807476	-20.817489156960008	20.317125778153738	0	0	0
392	1	1	68.12997944421642	-21.64262919573552	19.77255890737522	0	0	0
393	1	1	67.97967695035807	-21.583590470969682	18.78568323672669	0	0	0
394	1	1	67.82937445649972	-22.408730509745194	18.241116365948173	0	0	0
395	1	1	67.67907196264137	-22.349691784979356	17.254240695299643	0	0	0
396	1	1	67.52876946878303	-23.174831823754868	16.709673824521126	0	0	0
397	1	1	67.37846697492468	-23.11579309898903	15.722798153872596	0	0	0
398	1	1	67.22816448106633	-23.940933137764542	15.178231283094078	0	0	0
399	1	1	67.07786198720798	-23.881894412998705	14.191355612445548	0	0	0
400	1	1	66.92755949334963	-24.707034451774216	13.64678874166703	0	0	0
401	1	1	66.77725699949129	-24.64799572700838	12.6599130710185	0	0	0
402	1	1	66.62695450563294	-25.47313576578389	12.115346200239983	0	0	0
403	1	1	66.47665201177459	-25.414097041018053	11.128470529591453	0	0	0
404	1	1	66.32634951791624	-26.239237079793565	10.583903658812936	0	0	0
405	1	1	66.1760470240579	-26.180198355027727	9.597027988164406	0	0	0
406	1	1	66.02574453019955	-27.00533839380324	9.052461117385889	0	0	0
407	1	1	73.36030812783261	-10.296406113519037	44.201729426426596	0	0	0
408	1	1	73.93125950184002	-11.09196415844644	44.404465525013734	0	0	0
409	1	1	74.50221087584742	-11.314168569269533	45.194807051399515	0	0	0
410	1	1	75.07316224985483	-12.109726614196937	45.39754314998665	0	0	0
411	1	1	75.64411362386224	-12.33193102502003	46.187884676372434	0	0	0
412	1	1	76.21506499786965	-13.127489069947433	46.39062077495957	0	0	0
413	1	1	76.78601637187705	-13.349693480770526	47.18096230134535	0	0	0
414	1	1	77.35696774588446	-14.14525152569793	47.38369839993249	0	0	0
415	1	1	77.92791911989187	-14.367455936521022	48.17403992631827	0	0	0
416	1	1	78.49887049389928	-15.163013981448426	48.37677602490541	0	0	0
417	1	1	79.06982186790668	-15.385218392271518	49.16711755129119	0	0	0
418	1	1	79.64077324191409	-16.180776437198922	49.36985364987833	0	0	0
419	1	1	80.2117246159215	-16.402980848022015	50.16019517626411	0	0	0
420	1	1	80.7826759899289	-17.19853889294942	50.36293127485125	0	0	0
421	1	1	81.35362736393631	-17.42074330377251	51.15327280123703	0	0	0
422	1	1	81.92457873794372	-18.216301348699915	51.35600889982417	0	0	0
423	1	1	82.49553011195113	-18.438505759523007	52.14635042620995	0	0	0
424	1	1	83.06648148595853	-19.23406380445041	52.34908652479709	0	0	0
425	1	1	83.63743285996594	-19.456268215273504	53.13942805118287	0	0	0
426	1	1	84.20838423397335	-20.251826260200907	53.34216414977001	0	0	0
427	1	1	84.77933560798076	-20.474030671024	54.13250567615579	0	0	0
428	1	1	85.35028698198816	-21.269588715951404	54.335241774742926	0	0	0
429	1	1	85.92123835599557	-21.491793126774496	55.12558330112871	0	0	0
430	1	1	86.49218973000298	-22.2873511717019	55.328319399715845	0	0	0
431	1	1	87.06314110401038	-22.509555582524992	56.118660926101626	0	0	0
432	1	1	87.63409247801779	-23.305113627452396	56.321397024688764	0	0	0
433	1	1	88.2050438520252	-23.52731803827549	57.111738551074545	0	0	0
434	1	1	88.7759952260326	-24.322876083202893	57.31447464966168	0	0	0
435	1	1	89.34694660004001	-24.545080494025985	58.104816176047464	0	0	0
436	1	1	89.91789797404742	-25.34063853895339	58.3075522746346	0	0	0
437	1	1	90.48884934805483	-25.56284294977648	59.09789380102038	0	0	0
438	1	1	91.05980072206223	-26.358400994703885	59.30062989960752	0	0	0
439	1	1	91.63075209606964	-26.580605405526978	60.0909714259933	0	0	0
440	1	1	92.20170347007705	-27.37616345045438	60.29370752458044	0	0	0
441	1	1	92.77265484408446	-27.598367861277474	61.08404905096622	0	0	0
442	1	1	93.34360621809186	-28.393925906204878	61.28678514955336	0	0	0
443	1	1	93.91455759209927	-28.61613031702797	62.07712667593914	0	0	0