bb436nuc7bl54bn4d30tot1200V2

1189 atoms
1188 bonds
1208 angles

1 atom types
1 bond types
1 angle types

-1000 1000 xlo xhi
-1000 1000 ylo yhi
-1000 1000 zlo zhi

Masses

1 1

Atoms

1	1	1	0.0	0.0	0.0	0	0	0
2	1	1	0.0	0.0	1.0	0	0	0
3	1	1	0.0	-0.49999999999999994	1.8660254037844388	0	0	0
4	1	1	0.0	0.0	2.7320508075688776	0	0	0
5	1	1	0.0	-0.49999999999999994	3.5980762113533165	0	0	0
6	1	1	0.0	0.0	4.464101615137755	0	0	0
7	1	1	0.0	-0.49999999999999994	5.330127018922194	0	0	0
8	1	1	0.0	0.0	6.196152422706632	0	0	0
9	1	1	0.0	-0.49999999999999994	7.06217782649107	0	0	0
10	1	1	0.0	0.0	7.928203230275509	0	0	0
11	1	1	0.0	-0.49999999999999994	8.794228634059948	0	0	0
12	1	1	0.0	0.0	9.660254037844387	0	0	0
13	1	1	0.0	-0.49999999999999994	10.526279441628827	0	0	0
14	1	1	0.0	0.0	11.392304845413266	0	0	0
15	1	1	0.0	-0.49999999999999994	12.258330249197705	0	0	0
16	1	1	0.0	0.0	13.124355652982144	0	0	0
17	1	1	0.0	-0.49999999999999994	13.990381056766584	0	0	0
18	1	1	0.0	0.0	14.856406460551023	0	0	0
19	1	1	0.0	-0.49999999999999994	15.722431864335462	0	0	0
20	1	1	0.0	0.0	16.5884572681199	0	0	0
21	1	1	0.0	-0.49999999999999994	17.454482671904337	0	0	0
22	1	1	0.0	0.0	18.320508075688775	0	0	0
23	1	1	0.0	-0.49999999999999994	19.186533479473212	0	0	0
24	1	1	0.0	0.0	20.05255888325765	0	0	0
25	1	1	0.0	-0.49999999999999994	20.918584287042087	0	0	0
26	1	1	0.0	0.0	21.784609690826525	0	0	0
27	1	1	0.0	-0.49999999999999994	22.650635094610962	0	0	0
28	1	1	0.0	0.0	23.5166604983954	0	0	0
29	1	1	0.0	-0.49999999999999994	24.382685902179837	0	0	0
30	1	1	0.0	0.0	25.248711305964274	0	0	0
31	1	1	0.0	-0.49999999999999994	26.114736709748712	0	0	0
32	1	1	0.0	0.0	26.98076211353315	0	0	0
33	1	1	0.0	-0.49999999999999994	27.846787517317587	0	0	0
34	1	1	0.0	0.0	28.712812921102024	0	0	0
35	1	1	0.0	-0.49999999999999994	29.578838324886462	0	0	0
36	1	1	0.0	0.0	30.4448637286709	0	0	0
37	1	1	0.0	-0.49999999999999994	31.310889132455337	0	0	0
38	1	1	0.0	0.0	32.17691453623978	0	0	0
39	1	1	0.0	-0.49999999999999994	33.04293994002422	0	0	0
40	1	1	0.0	0.0	33.90896534380866	0	0	0
41	1	1	0.0	-0.49999999999999994	34.7749907475931	0	0	0
42	1	1	0.0	0.0	35.64101615137754	0	0	0
43	1	1	0.0	-0.49999999999999994	36.50704155516198	0	0	0
44	1	1	0.0	0.0	37.373066958946424	0	0	0
45	1	1	0.0	-0.49999999999999994	38.239092362730865	0	0	0
46	1	1	0.0	0.0	39.105117766515306	0	0	0
47	1	1	0.0	-0.49999999999999994	39.97114317029975	0	0	0
48	1	1	0.0	0.0	40.83716857408419	0	0	0
49	1	1	0.0	-0.49999999999999994	41.70319397786863	0	0	0
50	1	1	0.0	0.0	42.56921938165307	0	0	0
51	1	1	0.0	-0.49999999999999994	43.43524478543751	0	0	0
52	1	1	0.0	0.0	44.30127018922195	0	0	0
53	1	1	0.0	-0.49999999999999994	45.16729559300639	0	0	0
54	1	1	0.0	0.0	46.033320996790835	0	0	0
55	1	1	0.0	-0.49999999999999994	46.899346400575276	0	0	0
56	1	1	0.8471343854112747	-1.024956826942987	46.981709395298736	0	0	0
57	1	1	1.6942687708225477	-1.5207642723274133	46.79055942758952	0	0	0
58	1	1	2.541403156233821	-1.9342087229883813	47.124366286823296	0	0	0
59	1	1	3.388537541645094	-2.4300161683728074	46.93321631911408	0	0	0
60	1	1	4.235671927056367	-2.8434606190337752	47.267023178347856	0	0	0
61	1	1	5.08280631246764	-3.3392680644182016	47.07587321063864	0	0	0
62	1	1	5.929940697878913	-3.7527125150791694	47.409680069872415	0	0	0
63	1	1	6.777075083290186	-4.248519960463596	47.2185301021632	0	0	0
64	1	1	7.624209468701459	-4.661964411124564	47.552336961396975	0	0	0
65	1	1	8.471343854112732	-5.15777185650899	47.36118699368776	0	0	0
66	1	1	9.318478239524005	-5.5712163071699585	47.694993852921534	0	0	0
67	1	1	10.165612624935278	-6.067023752554385	47.50384388521232	0	0	0
68	1	1	11.012747010346551	-6.480468203215353	47.837650744446094	0	0	0
69	1	1	11.859881395757824	-6.9762756485997794	47.64650077673688	0	0	0
70	1	1	12.707015781169098	-7.389720099260748	47.980307635970654	0	0	0
71	1	1	13.55415016658037	-7.885527544645174	47.78915766826144	0	0	0
72	1	1	14.401284551991644	-8.298971995306141	48.12296452749521	0	0	0
73	1	1	15.248418937402917	-8.794779440690569	47.931814559786	0	0	0
74	1	1	16.09555332281419	-9.208223891351537	48.26562141901977	0	0	0
75	1	1	16.942687708225463	-9.704031336735962	48.07447145131056	0	0	0
76	1	1	17.789822093636737	-10.11747578739693	48.40827831054433	0	0	0
77	1	1	18.63695647904801	-10.613283232781356	48.21712834283512	0	0	0
78	1	1	19.484090864459283	-11.026727683442324	48.55093520206889	0	0	0
79	1	1	20.331225249870556	-11.52253512882675	48.35978523435968	0	0	0
80	1	1	21.17835963528183	-11.935979579487718	48.69359209359345	0	0	0
81	1	1	22.025494020693102	-12.431787024872143	48.50244212588424	0	0	0
82	1	1	22.872628406104376	-12.845231475533112	48.83624898511801	0	0	0
83	1	1	23.71976279151565	-13.341038920917537	48.645099017408796	0	0	0
84	1	1	24.566897176926922	-13.754483371578505	48.97890587664257	0	0	0
85	1	1	25.414031562338195	-14.25029081696293	48.787755908933356	0	0	0
86	1	1	26.26116594774947	-14.663735267623899	49.12156276816713	0	0	0
87	1	1	27.10830033316074	-15.159542713008324	48.930412800457916	0	0	0
88	1	1	27.955434718572015	-15.572987163669293	49.26421965969169	0	0	0
89	1	1	28.802569103983288	-16.068794609053718	49.073069691982475	0	0	0
90	1	1	29.64970348939456	-16.482239059714686	49.40687655121625	0	0	0
91	1	1	30.496837874805834	-16.978046505099112	49.215726583507035	0	0	0
92	1	1	31.343972260217107	-17.39149095576008	49.54953344274081	0	0	0
93	1	1	32.19110664562838	-17.887298401144506	49.358383475031594	0	0	0
94	1	1	33.038241031039654	-18.300742851805474	49.69219033426537	0	0	0
95	1	1	33.88537541645093	-18.7965502971899	49.501040366556154	0	0	0
96	1	1	34.7325098018622	-19.209994747850867	49.83484722578993	0	0	0
97	1	1	35.57964418727347	-19.705802193235293	49.643697258080714	0	0	0
98	1	1	36.426778572684746	-20.11924664389626	49.97750411731449	0	0	0
99	1	1	37.27391295809602	-20.615054089280687	49.78635414960527	0	0	0
100	1	1	38.12104734350729	-21.028498539941655	50.12016100883905	0	0	0
101	1	1	38.968181728918566	-21.52430598532608	49.92901104112983	0	0	0
102	1	1	39.81531611432984	-21.93775043598705	50.26281790036361	0	0	0
103	1	1	40.66245049974111	-22.433557881371474	50.07166793265439	0	0	0
104	1	1	41.509584885152385	-22.847002332032442	50.40547479188817	0	0	0
105	1	1	42.35671927056366	-23.342809777416868	50.21432482417895	0	0	0
106	1	1	43.20385365597493	-23.756254228077836	50.54813168341273	0	0	0
107	1	1	44.050988041386205	-24.25206167346226	50.35698171570351	0	0	0
108	1	1	44.89812242679748	-24.66550612412323	50.69078857493729	0	0	0
109	1	1	45.74525681220875	-25.161313569507655	50.49963860722807	0	0	0
110	1	1	-0.7816205900317408	-1.1232275200122883	46.92497278420172	0	0	0
111	1	1	-1.5632411800634802	-1.6757715764937269	46.6355521234232	0	0	0
112	1	1	-2.3448617700952195	-2.202689249348719	46.96935898265698	0	0	0
113	1	1	-3.1264823601269587	-2.7552333058301572	46.67993832187846	0	0	0
114	1	1	-3.908102950158698	-3.2821509786851495	47.013745181112235	0	0	0
115	1	1	-4.689723540190437	-3.834695035166588	46.72432452033372	0	0	0
116	1	1	-5.471344130222176	-4.36161270802158	47.05813137956749	0	0	0
117	1	1	-6.252964720253916	-4.914156764503018	46.768710718788974	0	0	0
118	1	1	-7.034585310285655	-5.441074437358011	47.10251757802275	0	0	0
119	1	1	-7.816205900317394	-5.993618493839449	46.81309691724423	0	0	0
120	1	1	-8.597826490349133	-6.520536166694441	47.146903776478005	0	0	0
121	1	1	-9.379447080380872	-7.07308022317588	46.85748311569949	0	0	0
122	1	1	-10.161067670412612	-7.599997896030872	47.19128997493326	0	0	0
123	1	1	-10.942688260444351	-8.15254195251231	46.901869314154744	0	0	0
124	1	1	-11.72430885047609	-8.679459625367302	47.23567617338852	0	0	0
125	1	1	-12.50592944050783	-9.232003681848742	46.94625551261	0	0	0
126	1	1	-13.287550030539569	-9.758921354703734	47.280062371843776	0	0	0
127	1	1	-14.069170620571308	-10.311465411185173	46.99064171106526	0	0	0
128	1	1	-14.850791210603047	-10.838383084040165	47.32444857029903	0	0	0
129	1	1	-15.632411800634786	-11.390927140521605	47.035027909520515	0	0	0
130	1	1	-16.414032390666527	-11.917844813376597	47.36883476875429	0	0	0
131	1	1	-17.195652980698267	-12.470388869858036	47.07941410797577	0	0	0
132	1	1	-17.977273570730006	-12.997306542713028	47.41322096720955	0	0	0
133	1	1	-18.758894160761745	-13.549850599194468	47.12380030643103	0	0	0
134	1	1	-19.540514750793484	-14.07676827204946	47.457607165664804	0	0	0
135	1	1	-20.322135340825223	-14.629312328530899	47.168186504886286	0	0	0
136	1	1	-21.103755930856963	-15.156230001385891	47.50199336412006	0	0	0
137	1	1	-21.885376520888702	-15.70877405786733	47.21257270334154	0	0	0
138	1	1	-22.66699711092044	-16.235691730722323	47.54637956257532	0	0	0
139	1	1	-23.44861770095218	-16.78823578720376	47.2569589017968	0	0	0
140	1	1	-24.23023829098392	-17.315153460058752	47.590765761030575	0	0	0
141	1	1	-25.01185888101566	-17.86769751654019	47.30134510025206	0	0	0
142	1	1	-25.793479471047398	-18.394615189395182	47.63515195948583	0	0	0
143	1	1	-26.575100061079137	-18.94715924587662	47.345731298707314	0	0	0
144	1	1	-27.356720651110876	-19.474076918731612	47.67953815794109	0	0	0
145	1	1	-28.138341241142616	-20.02662097521305	47.39011749716257	0	0	0
146	1	1	-28.919961831174355	-20.55353864806804	47.723924356396346	0	0	0
147	1	1	-29.701582421206094	-21.10608270454948	47.43450369561783	0	0	0
148	1	1	-30.483203011237833	-21.63300037740447	47.7683105548516	0	0	0
149	1	1	-31.264823601269573	-22.18554443388591	47.478889894073085	0	0	0
150	1	1	-32.04644419130131	-22.7124621067409	47.81269675330686	0	0	0
151	1	1	-32.828064781333055	-23.26500616322234	47.52327609252834	0	0	0
152	1	1	-33.6096853713648	-23.79192383607733	47.857082951762116	0	0	0
153	1	1	-34.39130596139654	-24.344467892558768	47.5676622909836	0	0	0
154	1	1	-35.17292655142828	-24.87138556541376	47.90146915021737	0	0	0
155	1	1	-35.954547141460026	-25.423929621895198	47.612048489438855	0	0	0
156	1	1	-36.73616773149177	-25.95084729475019	47.94585534867263	0	0	0
157	1	1	-37.51778832152351	-26.503391351231627	47.65643468789411	0	0	0
158	1	1	-38.299408911555254	-27.03030902408662	47.99024154712789	0	0	0
159	1	1	-39.081029501587	-27.582853080568057	47.70082088634937	0	0	0
160	1	1	-39.86265009161874	-28.10977075342305	48.034627745583144	0	0	0
161	1	1	-40.64427068165048	-28.662314809904487	47.745207084804626	0	0	0
162	1	1	-41.425891271682225	-29.18923248275948	48.0790139440384	0	0	0
163	1	1	-42.20751186171397	-29.741776539240917	47.78959328325988	0	0	0
164	1	1	-0.06551379537952813	0.14747405810462216	47.6586126823872	0	0	0
165	1	1	-0.13102759075905615	0.32856989980866397	48.63989359972559	0	0	0
166	1	1	-0.19654138613858418	1.268932023324629	48.97370045895936	0	0	0
167	1	1	-0.2620551815181122	1.4500278650286709	49.954981376297745	0	0	0
168	1	1	-0.3275689768976402	2.3903899885446362	50.28878823553151	0	0	0
169	1	1	-0.3930827722771682	2.571485830248678	51.2700691528699	0	0	0
170	1	1	-0.4585965676566962	3.5118479537646428	51.60387601210367	0	0	0
171	1	1	-0.5241103630362243	3.6929437954686843	52.58515692944206	0	0	0
172	1	1	-0.5896241584157523	4.633305918984649	52.918963788675825	0	0	0
173	1	1	-0.6551379537952804	4.814401760688691	53.90024470601421	0	0	0
174	1	1	-0.7206517491748085	5.754763884204656	54.23405156524798	0	0	0
175	1	1	-0.7861655445543365	5.935859725908697	55.21533248258637	0	0	0
176	1	1	-0.8516793399338646	6.876221849424662	55.54913934182014	0	0	0
177	1	1	-0.9171931353133926	7.057317691128704	56.530420259158525	0	0	0
178	1	1	-0.9827069306929207	7.997679814644669	56.86422711839229	0	0	0
179	1	1	-1.0482207260724488	8.17877565634871	57.84550803573068	0	0	0
180	1	1	-1.1137345214519767	9.119137779864676	58.17931489496445	0	0	0
181	1	1	-1.1792483168315047	9.300233621568719	59.16059581230284	0	0	0
182	1	1	-1.2447621122110326	10.240595745084685	59.494402671536605	0	0	0
183	1	1	-1.3102759075905606	10.421691586788727	60.47568358887499	0	0	0
184	1	1	-1.3757897029700885	11.362053710304693	60.80949044810876	0	0	0
185	1	1	-1.4413034983496165	11.543149552008735	61.79077136544715	0	0	0
186	1	1	-1.5068172937291444	12.483511675524701	62.12457822468092	0	0	0
187	1	1	-1.5723310891086724	12.664607517228744	63.105859142019305	0	0	0
188	1	1	-1.6378448844882003	13.60496964074471	63.43966600125307	0	0	0
189	1	1	-1.7033586798677283	13.786065482448752	64.42094691859147	0	0	0
190	1	1	-1.7688724752472562	14.726427605964718	64.75475377782524	0	0	0
191	1	1	-1.8343862706267842	14.90752344766876	65.73603469516364	0	0	0
192	1	1	-1.8999000660063121	15.847885571184726	66.06984155439741	0	0	0
193	1	1	-1.96541386138584	16.02898141288877	67.05112247173581	0	0	0
194	1	1	-2.030927656765368	16.969343536404732	67.38492933096958	0	0	0
195	1	1	-2.096441452144896	17.150439378108775	68.36621024830798	0	0	0
196	1	1	-2.1619552475244244	18.09080150162474	68.70001710754175	0	0	0
197	1	1	-2.2274690429039525	18.27189734332878	69.68129802488015	0	0	0
198	1	1	-2.2929828382834807	19.212259466844746	70.01510488411392	0	0	0
199	1	1	-2.358496633663009	19.393355308548788	70.99638580145232	0	0	0
200	1	1	-2.424010429042537	20.333717432064752	71.3301926606861	0	0	0
201	1	1	-2.4895242244220652	20.514813273768794	72.31147357802449	0	0	0
202	1	1	-2.5550380198015934	21.45517539728476	72.64528043725826	0	0	0
203	1	1	-2.6205518151811216	21.6362712389888	73.62656135459666	0	0	0
204	1	1	-2.6860656105606497	22.576633362504765	73.96036821383044	0	0	0
205	1	1	-2.751579405940178	22.757729204208808	74.94164913116883	0	0	0
206	1	1	-2.817093201319706	23.69809132772477	75.2754559904026	0	0	0
207	1	1	-2.8826069966992343	23.879187169428814	76.256736907741	0	0	0
208	1	1	-2.9481207920787624	24.819549292944778	76.59054376697478	0	0	0
209	1	1	-3.0136345874582906	25.00064513464882	77.57182468431317	0	0	0
210	1	1	-3.0791483828378188	25.941007258164785	77.90563154354695	0	0	0
211	1	1	-3.144662178217347	26.122103099868827	78.88691246088534	0	0	0
212	1	1	-3.210175973596875	27.06246522338479	79.22071932011912	0	0	0
213	1	1	-3.2756897689764033	27.243561065088834	80.20200023745751	0	0	0
214	1	1	-3.3412035643559315	28.183923188604798	80.53580709669129	0	0	0
215	1	1	-3.4067173597354596	28.36501903030884	81.51708801402968	0	0	0
216	1	1	-3.472231155114988	29.305381153824804	81.85089487326346	0	0	0
217	1	1	-3.537744950494516	29.486476995528847	82.83217579060185	0	0	0
218	1	1	-3.159833621589827	28.71259705656109	83.34040100401492	0	0	0
219	1	1	-2.78192229268514	27.78828476322933	83.39359698019054	0	0	0
220	1	1	-2.4040109637804528	27.37219768331064	84.2206728953339	0	0	0
221	1	1	-2.0260996348757656	26.447885389978882	84.27386887150952	0	0	0
222	1	1	-1.6481883059710787	26.031798310060193	85.10094478665289	0	0	0
223	1	1	-1.2702769770663918	25.107486016728433	85.1541407628285	0	0	0
224	1	1	-0.8923656481617048	24.691398936809744	85.98121667797187	0	0	0
225	1	1	-0.5144543192570179	23.767086643477985	86.03441265414749	0	0	0
226	1	1	-0.13654299035233092	23.350999563559295	86.86148856929086	0	0	0
227	1	1	0.24136833855235607	22.426687270227536	86.91468454546647	0	0	0
228	1	1	0.6192796674570431	22.010600190308846	87.74176046060984	0	0	0
229	1	1	0.99719099636173	21.086287896977087	87.79495643678545	0	0	0
230	1	1	1.375102325266417	20.670200817058397	88.62203235192882	0	0	0
231	1	1	1.7530136541711039	19.745888523726638	88.67522832810444	0	0	0
232	1	1	2.130924983075791	19.32980144380795	89.5023042432478	0	0	0
233	1	1	2.508836311980478	18.40548915047619	89.55550021942342	0	0	0
234	1	1	2.886747640885165	17.9894020705575	90.38257613456679	0	0	0
235	1	1	3.2646589697898523	17.06508977722574	90.4357721107424	0	0	0
236	1	1	3.6425702986945394	16.64900269730705	91.26284802588577	0	0	0
237	1	1	4.020481627599226	15.724690403975291	91.31604400206139	0	0	0
238	1	1	4.398392956503913	15.3086033240566	92.14311991720476	0	0	0
239	1	1	4.7763042854085995	14.38429103072484	92.19631589338037	0	0	0
240	1	1	5.154215614313286	13.96820395080615	93.02339180852374	0	0	0
241	1	1	5.532126943217973	13.04389165747439	93.07658778469936	0	0	0
242	1	1	5.91003827212266	12.627804577555699	93.90366369984272	0	0	0
243	1	1	6.287949601027346	11.70349228422394	93.95685967601834	0	0	0
244	1	1	6.665860929932033	11.287405204305248	94.78393559116171	0	0	0
245	1	1	7.04377225883672	10.363092910973489	94.83713156733732	0	0	0
246	1	1	7.4216835877414065	9.947005831054797	95.66420748248069	0	0	0
247	1	1	7.799594916646093	9.022693537723038	95.7174034586563	0	0	0
248	1	1	8.17750624555078	8.606606457804347	96.54447937379967	0	0	0
249	1	1	8.555417574455468	7.682294164472586	96.59767534997529	0	0	0
250	1	1	8.933328903360156	7.266207084553895	97.42475126511866	0	0	0
251	1	1	9.311240232264844	6.341894791222135	97.47794724129427	0	0	0
252	1	1	9.689151561169531	5.9258077113034435	98.30502315643764	0	0	0
253	1	1	10.067062890074219	5.001495417971683	98.35821913261326	0	0	0
254	1	1	10.444974218978906	4.585408338052992	99.18529504775663	0	0	0
255	1	1	10.822885547883594	3.6610960447212317	99.23849102393224	0	0	0
256	1	1	11.200796876788282	3.245008964802541	100.06556693907561	0	0	0
257	1	1	11.578708205692969	2.320696671470781	100.11876291525122	0	0	0
258	1	1	11.956619534597657	1.90460959155209	100.94583883039459	0	0	0
259	1	1	12.334530863502344	0.98029729822033	100.99903480657021	0	0	0
260	1	1	12.712442192407032	0.5642102183016389	101.82611072171358	0	0	0
261	1	1	13.09035352131172	-0.36010207503012115	101.87930669788919	0	0	0
262	1	1	13.468264850216407	-0.7761891549488122	102.70638261303256	0	0	0
263	1	1	13.846176179121095	-1.7005014482805723	102.75957858920818	0	0	0
264	1	1	14.224087508025782	-2.116588528199263	103.58665450435154	0	0	0
265	1	1	14.60199883693047	-3.0409008215310234	103.63985048052716	0	0	0
266	1	1	14.979910165835157	-3.4569879014497142	104.46692639567053	0	0	0
267	1	1	15.357821494739845	-4.381300194781474	104.52012237184614	0	0	0
268	1	1	15.735732823644533	-4.797387274700165	105.34719828698951	0	0	0
269	1	1	16.11364415254922	-5.721699568031926	105.40039426316513	0	0	0
270	1	1	16.491555481453908	-6.137786647950617	106.2274701783085	0	0	0
271	1	1	16.869466810358595	-7.062098941282377	106.28066615448411	0	0	0
272	1	1	-4.496864999189961	29.614104125288097	83.08476250430601	0	0	0
273	1	1	-5.455985047885402	29.59833910501962	83.36732257991187	0	0	0
274	1	1	-6.415105096580843	29.835160798455306	83.52225552575848	0	0	0
275	1	1	-7.374225145276284	29.819395778186827	83.80481560136434	0	0	0
276	1	1	-8.333345193971725	30.056217471622514	83.95974854721095	0	0	0
277	1	1	-9.292465242667166	30.040452451354035	84.24230862281681	0	0	0
278	1	1	-10.251585291362607	30.277274144789722	84.39724156866342	0	0	0
279	1	1	-11.210705340058048	30.261509124521243	84.67980164426928	0	0	0
280	1	1	-12.16982538875349	30.49833081795693	84.83473459011589	0	0	0
281	1	1	-13.12894543744893	30.48256579768845	85.11729466572174	0	0	0
282	1	1	-14.088065486144371	30.719387491124138	85.27222761156835	0	0	0
283	1	1	-15.047185534839812	30.70362247085566	85.55478768717421	0	0	0
284	1	1	-16.006305583535255	30.940444164291346	85.70972063302082	0	0	0
285	1	1	-16.965425632230698	30.924679144022868	85.99228070862668	0	0	0
286	1	1	-17.92454568092614	31.161500837458554	86.14721365447329	0	0	0
287	1	1	-18.883665729621583	31.145735817190076	86.42977373007915	0	0	0
288	1	1	-19.842785778317026	31.382557510625762	86.58470667592576	0	0	0
289	1	1	-20.80190582701247	31.366792490357284	86.86726675153162	0	0	0
290	1	1	-21.76102587570791	31.60361418379297	87.02219969737823	0	0	0
291	1	1	-22.720145924403354	31.587849163524492	87.30475977298408	0	0	0
292	1	1	-23.679265973098797	31.82467085696018	87.4596927188307	0	0	0
293	1	1	-24.63838602179424	31.8089058366917	87.74225279443655	0	0	0
294	1	1	-25.597506070489683	32.04572753012739	87.89718574028316	0	0	0
295	1	1	-26.556626119185125	32.029962509858905	88.17974581588902	0	0	0
296	1	1	-27.515746167880568	32.26678420329459	88.33467876173563	0	0	0
297	1	1	-28.47486621657601	32.25101918302611	88.61723883734149	0	0	0
298	1	1	-29.433986265271454	32.487840876461796	88.7721717831881	0	0	0
299	1	1	-30.393106313966896	32.472075856193314	89.05473185879396	0	0	0
300	1	1	-31.35222636266234	32.708897549629	89.20966480464057	0	0	0
301	1	1	-32.31134641135778	32.69313252936052	89.49222488024643	0	0	0
302	1	1	-33.27046646005322	32.929954222796205	89.64715782609304	0	0	0
303	1	1	-34.22958650874866	32.91418920252772	89.9297179016989	0	0	0
304	1	1	-35.1887065574441	33.15101089596341	90.0846508475455	0	0	0
305	1	1	-36.14782660613954	33.13524587569493	90.36721092315136	0	0	0
306	1	1	-37.10694665483498	33.372067569130614	90.52214386899797	0	0	0
307	1	1	-38.06606670353042	33.35630254886213	90.80470394460383	0	0	0
308	1	1	-39.025186752225856	33.59312424229782	90.95963689045044	0	0	0
309	1	1	-39.984306800921296	33.57735922202934	91.2421969660563	0	0	0
310	1	1	-40.943426849616735	33.81418091546502	91.39712991190291	0	0	0
311	1	1	-41.902546898312174	33.79841589519654	91.67968998750877	0	0	0
312	1	1	-42.86166694700761	34.03523758863223	91.83462293335538	0	0	0
313	1	1	-43.82078699570305	34.019472568363746	92.11718300896123	0	0	0
314	1	1	-44.77990704439849	34.25629426179943	92.27211595480784	0	0	0
315	1	1	-45.73902709309393	34.24052924153095	92.5546760304137	0	0	0
316	1	1	-46.69814714178937	34.47735093496664	92.70960897626031	0	0	0
317	1	1	-47.65726719048481	34.461585914698155	92.99216905186617	0	0	0
318	1	1	-48.61638723918025	34.69840760813384	93.14710199771278	0	0	0
319	1	1	-49.57550728787569	34.68264258786536	93.42966207331864	0	0	0
320	1	1	-50.53462733657113	34.919464281301046	93.58459501916525	0	0	0
321	1	1	-51.493747385266566	34.903699261032564	93.8671550947711	0	0	0
322	1	1	-52.452867433962005	35.14052095446825	94.02208804061772	0	0	0
323	1	1	-53.411987482657445	35.12475593419977	94.30464811622358	0	0	0
324	1	1	-54.371107531352884	35.361577627635455	94.45958106207019	0	0	0
325	1	1	-55.33022758004832	35.34581260736697	94.74214113767604	0	0	0
326	1	1	-3.022143093520117	30.31408290715592	83.0540387666129	0	0	0
327	1	1	-2.5065412365457203	30.919879162941616	83.65998069581123	0	0	0
328	1	1	-1.9909393795713235	31.747538394738363	83.43831671338248	0	0	0
329	1	1	-1.4753375225969267	32.35333465052406	84.0442586425808	0	0	0
330	1	1	-0.95973566562253	33.18099388232081	83.82259466015205	0	0	0
331	1	1	-0.44413380864813323	33.78679013810651	84.42853658935037	0	0	0
332	1	1	0.07146804832626352	34.61444936990326	84.20687260692162	0	0	0
333	1	1	0.5870699053006603	35.22024562568896	84.81281453611994	0	0	0
334	1	1	1.102671762275057	36.04790485748571	84.5911505536912	0	0	0
335	1	1	1.6182736192494538	36.65370111327141	85.19709248288952	0	0	0
336	1	1	2.1338754762238503	37.48136034506816	84.97542850046077	0	0	0
337	1	1	2.649477333198247	38.08715660085386	85.58137042965909	0	0	0
338	1	1	3.1650791901726434	38.91481583265061	85.35970644723034	0	0	0
339	1	1	3.68068104714704	39.52061208843631	85.96564837642866	0	0	0
340	1	1	4.1962829041214365	40.34827132023306	85.74398439399991	0	0	0
341	1	1	4.711884761095833	40.95406757601876	86.34992632319823	0	0	0
342	1	1	5.2274866180702295	41.78172680781551	86.12826234076948	0	0	0
343	1	1	5.743088475044626	42.38752306360121	86.7342042699678	0	0	0
344	1	1	6.258690332019023	43.21518229539796	86.51254028753905	0	0	0
345	1	1	6.774292188993419	43.82097855118366	87.11848221673738	0	0	0
346	1	1	7.289894045967816	44.64863778298041	86.89681823430863	0	0	0
347	1	1	7.805495902942212	45.25443403876611	87.50276016350695	0	0	0
348	1	1	8.32109775991661	46.08209327056286	87.2810961810782	0	0	0
349	1	1	8.836699616891007	46.687889526348556	87.88703811027652	0	0	0
350	1	1	9.352301473865404	47.51554875814531	87.66537412784777	0	0	0
351	1	1	9.867903330839802	48.121345013931005	88.27131605704609	0	0	0
352	1	1	10.3835051878142	48.94900424572776	88.04965207461734	0	0	0
353	1	1	10.899107044788597	49.554800501513455	88.65559400381566	0	0	0
354	1	1	11.414708901762994	50.382459733310206	88.43393002138691	0	0	0
355	1	1	11.930310758737392	50.988255989095904	89.03987195058524	0	0	0
356	1	1	12.445912615711789	51.815915220892656	88.81820796815649	0	0	0
357	1	1	12.961514472686186	52.421711476678354	89.42414989735481	0	0	0
358	1	1	13.477116329660584	53.249370708475105	89.20248591492606	0	0	0
359	1	1	13.992718186634981	53.8551669642608	89.80842784412438	0	0	0
360	1	1	14.508320043609379	54.682826196057555	89.58676386169563	0	0	0
361	1	1	15.023921900583776	55.28862245184325	90.19270579089395	0	0	0
362	1	1	15.539523757558174	56.116281683640004	89.9710418084652	0	0	0
363	1	1	16.05512561453257	56.7220779394257	90.57698373766353	0	0	0
364	1	1	16.570727471506967	57.54973717122245	90.35531975523477	0	0	0
365	1	1	17.086329328481362	58.15553342700815	90.9612616844331	0	0	0
366	1	1	17.601931185455758	58.9831926588049	90.73959770200435	0	0	0
367	1	1	18.117533042430154	59.5889889145906	91.34553963120267	0	0	0
368	1	1	18.63313489940455	60.41664814638735	91.12387564877392	0	0	0
369	1	1	19.148736756378945	61.02244440217305	91.72981757797224	0	0	0
370	1	1	19.66433861335334	61.8501036339698	91.50815359554349	0	0	0
371	1	1	20.179940470327736	62.4558998897555	92.11409552474181	0	0	0
372	1	1	20.69554232730213	63.28355912155225	91.89243154231306	0	0	0
373	1	1	21.211144184276527	63.88935537733795	92.49837347151139	0	0	0
374	1	1	21.726746041250923	64.7170146091347	92.27670948908263	0	0	0
375	1	1	22.24234789822532	65.32281086492038	92.88265141828096	0	0	0
376	1	1	22.757949755199714	66.15047009671713	92.6609874358522	0	0	0
377	1	1	23.27355161217411	66.75626635250282	93.26692936505053	0	0	0
378	1	1	23.789153469148506	67.58392558429956	93.04526538262178	0	0	0
379	1	1	24.3047553261229	68.18972184008526	93.6512073118201	0	0	0
380	1	1	24.713600637901198	67.65387060415338	94.38992847977671	0	0	0
381	1	1	25.1224459496795	66.82044923720878	94.76175415957451	0	0	0
382	1	1	25.5312912614578	66.72574903822078	95.66943107530419	0	0	0
383	1	1	25.9401365732361	65.89232767127618	96.04125675510198	0	0	0
384	1	1	26.3489818850144	65.79762747228818	96.94893367083166	0	0	0
385	1	1	26.7578271967927	64.96420610534358	97.32075935062946	0	0	0
386	1	1	27.166672508571	64.86950590635558	98.22843626635914	0	0	0
387	1	1	27.5755178203493	64.03608453941098	98.60026194615693	0	0	0
388	1	1	27.9843631321276	63.94138434042299	99.50793886188661	0	0	0
389	1	1	28.393208443905902	63.107962973478394	99.87976454168441	0	0	0
390	1	1	28.802053755684202	63.01326277449041	100.78744145741409	0	0	0
391	1	1	29.210899067462503	62.17984140754581	101.15926713721188	0	0	0
392	1	1	29.619744379240803	62.08514120855782	102.06694405294157	0	0	0
393	1	1	30.028589691019103	61.25171984161322	102.43876973273936	0	0	0
394	1	1	30.437435002797404	61.15701964262524	103.34644664846904	0	0	0
395	1	1	30.846280314575704	60.32359827568064	103.71827232826683	0	0	0
396	1	1	31.255125626354005	60.22889807669265	104.62594924399652	0	0	0
397	1	1	31.663970938132305	59.39547670974805	104.99777492379431	0	0	0
398	1	1	32.0728162499106	59.300776510760066	105.90545183952399	0	0	0
399	1	1	32.4816615616889	58.46735514381547	106.27727751932179	0	0	0
400	1	1	32.8905068734672	58.37265494482748	107.18495443505147	0	0	0
401	1	1	33.2993521852455	57.53923357788288	107.55678011484926	0	0	0
402	1	1	33.708197497023804	57.444533378894896	108.46445703057894	0	0	0
403	1	1	34.117042808802104	56.6111120119503	108.83628271037674	0	0	0
404	1	1	34.525888120580404	56.51641181296231	109.74395962610642	0	0	0
405	1	1	34.934733432358705	55.68299044601771	110.11578530590421	0	0	0
406	1	1	35.343578744137005	55.588290247029725	111.02346222163389	0	0	0
407	1	1	35.752424055915306	54.75486888008513	111.39528790143169	0	0	0
408	1	1	36.161269367693606	54.66016868109714	112.30296481716137	0	0	0
409	1	1	36.57011467947191	53.82674731415254	112.67479049695916	0	0	0
410	1	1	36.97895999125021	53.732047115164555	113.58246741268884	0	0	0
411	1	1	37.38780530302851	52.898625748219956	113.95429309248664	0	0	0
412	1	1	37.79665061480681	52.80392554923197	114.86197000821632	0	0	0
413	1	1	38.20549592658511	51.97050418228737	115.23379568801411	0	0	0
414	1	1	38.61434123836341	51.875803983299384	116.1414726037438	0	0	0
415	1	1	39.02318655014171	51.042382616354786	116.51329828354159	0	0	0
416	1	1	39.43203186192001	50.9476824173668	117.42097519927127	0	0	0
417	1	1	39.84087717369831	50.1142610504222	117.79280087906906	0	0	0
418	1	1	40.24972248547661	50.019560851434214	118.70047779479874	0	0	0
419	1	1	40.65856779725491	49.186139484489615	119.07230347459654	0	0	0
420	1	1	41.06741310903321	49.09143928550163	119.97998039032622	0	0	0
421	1	1	41.47625842081151	48.25801791855703	120.35180607012401	0	0	0
422	1	1	41.88510373258981	48.163317719569044	121.2594829858537	0	0	0
423	1	1	42.29394904436811	47.329896352624445	121.63130866565149	0	0	0
424	1	1	42.70279435614641	47.23519615363646	122.53898558138117	0	0	0
425	1	1	43.11163966792471	46.40177478669186	122.91081126117896	0	0	0
426	1	1	43.52048497970301	46.30707458770387	123.81848817690864	0	0	0
427	1	1	43.929330291481314	45.473653220759275	124.19031385670644	0	0	0
428	1	1	44.338175603259614	45.37895302177129	125.09799077243612	0	0	0
429	1	1	44.747020915037915	44.54553165482669	125.46981645223391	0	0	0
430	1	1	45.155866226816215	44.4508314558387	126.3774933679636	0	0	0
431	1	1	45.564711538594516	43.617410088894104	126.74931904776139	0	0	0
432	1	1	45.973556850372816	43.52270988990612	127.65699596349107	0	0	0
433	1	1	46.382402162151116	42.68928852296152	128.02882164328886	0	0	0
434	1	1	23.689746998056144	68.87628671626433	94.03901322617125	0	0	0
435	1	1	23.074738669989387	69.27696638320596	94.71814543782673	0	0	0
436	1	1	22.45973034192263	70.06545196449873	94.71071277330314	0	0	0
437	1	1	21.844722013855872	70.46613163144036	95.38984498495863	0	0	0
438	1	1	21.229713685789115	71.25461721273314	95.38241232043504	0	0	0
439	1	1	20.614705357722357	71.65529687967476	96.06154453209052	0	0	0
440	1	1	19.9996970296556	72.44378246096754	96.05411186756693	0	0	0
441	1	1	19.384688701588843	72.84446212790917	96.73324407922242	0	0	0
442	1	1	18.769680373522085	73.63294770920194	96.72581141469882	0	0	0
443	1	1	18.154672045455328	74.03362737614357	97.40494362635431	0	0	0
444	1	1	17.53966371738857	74.82211295743635	97.39751096183072	0	0	0
445	1	1	16.924655389321813	75.22279262437797	98.0766431734862	0	0	0
446	1	1	16.309647061255056	76.01127820567075	98.06921050896261	0	0	0