ITEM: TIMESTEP
0
ITEM: NUMBER OF ATOMS
401
ITEM: BOX BOUNDS pp pp pp
-1.0000000000000000e+03 1.0000000000000000e+03
-1.0000000000000000e+03 1.0000000000000000e+03
-1.0000000000000000e+03 1.0000000000000000e+03
ITEM: ATOMS id x y z ix iy iz
1 0.00000 0.00000 0.00000 0 0 0
2 0.00000 0.00000 1.00000 0 0 0
3 0.00000 -0.50000 1.86603 0 0 0
4 0.00000 0.00000 2.73205 0 0 0
5 0.00000 -0.50000 3.59808 0 0 0
6 0.00000 0.00000 4.46410 0 0 0
7 0.00000 -0.50000 5.33013 0 0 0
8 0.00000 0.00000 6.19615 0 0 0
9 0.00000 -0.50000 7.06218 0 0 0
10 0.00000 0.00000 7.92820 0 0 0
11 0.00000 -0.50000 8.79423 0 0 0
12 0.00000 0.00000 9.66025 0 0 0
13 0.00000 -0.50000 10.52628 0 0 0
14 0.00000 0.00000 11.39230 0 0 0
15 0.00000 -0.50000 12.25833 0 0 0
16 0.00000 0.00000 13.12436 0 0 0
17 0.00000 -0.50000 13.99038 0 0 0
18 0.00000 0.00000 14.85641 0 0 0
19 0.00000 -0.50000 15.72243 0 0 0
20 0.00000 0.00000 16.58846 0 0 0
21 0.00000 -0.50000 17.45448 0 0 0
22 0.00000 0.00000 18.32051 0 0 0
23 0.00000 -0.50000 19.18653 0 0 0
24 0.00000 0.00000 20.05256 0 0 0
25 0.00000 -0.50000 20.91858 0 0 0
26 0.00000 0.00000 21.78461 0 0 0
27 0.08260 -0.64631 22.54320 0 0 0
28 0.16521 -1.58532 22.87701 0 0 0
29 0.24781 -1.76575 23.85712 0 0 0
30 0.33042 -2.70476 24.19093 0 0 0
31 0.41302 -2.88518 25.17105 0 0 0
32 0.49562 -3.82420 25.50485 0 0 0
33 0.57823 -4.00462 26.48497 0 0 0
34 0.66083 -4.94364 26.81877 0 0 0
35 0.74344 -5.12406 27.79889 0 0 0
36 0.82604 -6.06307 28.13269 0 0 0
37 0.90864 -6.24350 29.11281 0 0 0
38 0.99125 -7.18251 29.44662 0 0 0
39 1.07385 -7.36293 30.42673 0 0 0
40 1.15646 -8.30195 30.76054 0 0 0
41 1.23906 -8.48237 31.74065 0 0 0
42 1.32166 -9.42139 32.07446 0 0 0
43 1.40427 -9.60181 33.05457 0 0 0
44 1.48687 -10.54082 33.38838 0 0 0
45 1.56948 -10.72125 34.36849 0 0 0
46 1.65208 -11.66026 34.70230 0 0 0
47 1.73468 -11.84068 35.68242 0 0 0
48 1.81729 -12.77970 36.01622 0 0 0
49 1.89989 -12.96012 36.99634 0 0 0
50 1.98250 -13.89914 37.33014 0 0 0
51 2.06510 -14.07956 38.31026 0 0 0
52 -0.85451 0.51156 21.87471 0 0 0
53 -1.70903 0.90953 22.20852 0 0 0
54 -2.56354 1.39760 22.03077 0 0 0
55 -3.41805 1.79557 22.36457 0 0 0
56 -4.27257 2.28364 22.18683 0 0 0
57 -5.12708 2.68161 22.52063 0 0 0
58 -5.98159 3.16968 22.34288 0 0 0
59 -6.83610 3.56765 22.67669 0 0 0
60 -7.69062 4.05572 22.49894 0 0 0
61 -8.54513 4.45369 22.83275 0 0 0
62 -9.39964 4.94176 22.65500 0 0 0
63 -10.25416 5.33973 22.98881 0 0 0
64 -11.10867 5.82780 22.81106 0 0 0
65 -11.96318 6.22577 23.14486 0 0 0
66 -12.81770 6.71384 22.96711 0 0 0
67 -13.67221 7.11181 23.30092 0 0 0
68 -14.52672 7.59988 23.12317 0 0 0
69 -15.38123 7.99785 23.45698 0 0 0
70 -16.23575 8.48592 23.27923 0 0 0
71 -17.09026 8.88389 23.61304 0 0 0
72 -17.94477 9.37197 23.43529 0 0 0
73 -18.79929 9.76994 23.76909 0 0 0
74 -19.65380 10.25801 23.59134 0 0 0
75 -20.50831 10.65598 23.92515 0 0 0
76 -21.36283 11.14405 23.74740 0 0 0
77 0.77191 0.63546 21.80317 0 0 0
78 1.54382 1.17651 22.13698 0 0 0
79 2.31573 1.73611 21.83532 0 0 0
80 3.08764 2.27716 22.16913 0 0 0
81 3.85955 2.83677 21.86748 0 0 0
82 4.63145 3.37781 22.20128 0 0 0
83 5.40336 3.93742 21.89963 0 0 0
84 6.17527 4.47846 22.23343 0 0 0
85 6.94718 5.03807 21.93178 0 0 0
86 7.71909 5.57912 22.26559 0 0 0
87 8.49100 6.13872 21.96393 0 0 0
88 9.26291 6.67977 22.29774 0 0 0
89 10.03482 7.23938 21.99608 0 0 0
90 10.80673 7.78042 22.32989 0 0 0
91 11.57864 8.34003 22.02824 0 0 0
92 12.35054 8.88107 22.36204 0 0 0
93 13.12245 9.44068 22.06039 0 0 0
94 13.89436 9.98173 22.39419 0 0 0
95 14.66627 10.54133 22.09254 0 0 0
96 15.43818 11.08238 22.42635 0 0 0
97 16.21009 11.64199 22.12469 0 0 0
98 16.98200 12.18303 22.45850 0 0 0
99 17.75391 12.74264 22.15684 0 0 0
100 18.52582 13.28368 22.49065 0 0 0
101 19.29773 13.84329 22.18899 0 0 0
102 19.43676 14.59532 22.83329 0 0 0
103 19.57579 14.92445 23.76729 0 0 0
104 19.71483 15.89787 23.94925 0 0 0
105 19.85386 16.22700 24.88325 0 0 0
106 19.99290 17.20042 25.06521 0 0 0
107 20.13193 17.52955 25.99921 0 0 0
108 20.27097 18.50298 26.18117 0 0 0
109 20.41000 18.83210 27.11517 0 0 0
110 20.54903 19.80553 27.29713 0 0 0
111 20.68807 20.13466 28.23112 0 0 0
112 20.82710 21.10808 28.41309 0 0 0
113 20.96614 21.43721 29.34708 0 0 0
114 21.10517 22.41063 29.52905 0 0 0
115 21.24421 22.73976 30.46304 0 0 0
116 21.38324 23.71319 30.64501 0 0 0
117 21.52227 24.04231 31.57900 0 0 0
118 21.66131 25.01574 31.76097 0 0 0
119 21.80034 25.34487 32.69496 0 0 0
120 21.93938 26.31829 32.87693 0 0 0
121 22.07841 26.64742 33.81092 0 0 0
122 22.21745 27.62085 33.99289 0 0 0
123 22.35648 27.94997 34.92688 0 0 0
124 22.49551 28.92340 35.10885 0 0 0
125 22.63455 29.25252 36.04284 0 0 0
126 22.77358 30.22595 36.22480 0 0 0
127 19.10600 14.21451 21.28046 0 0 0
128 18.91428 14.99026 20.67925 0 0 0
129 18.72255 14.85748 19.70683 0 0 0
130 18.53083 15.63323 19.10562 0 0 0
131 18.33910 15.50044 18.13319 0 0 0
132 18.14738 16.27620 17.53199 0 0 0
133 17.95565 16.14341 16.55956 0 0 0
134 17.76393 16.91916 15.95835 0 0 0
135 17.57220 16.78638 14.98593 0 0 0
136 17.38048 17.56213 14.38472 0 0 0
137 17.18875 17.42935 13.41230 0 0 0
138 16.99703 18.20510 12.81109 0 0 0
139 16.80530 18.07232 11.83867 0 0 0
140 16.61358 18.84807 11.23746 0 0 0
141 16.42185 18.71528 10.26503 0 0 0
142 16.23013 19.49104 9.66383 0 0 0
143 16.03840 19.35825 8.69140 0 0 0
144 15.84668 20.13400 8.09020 0 0 0
145 15.65496 20.00122 7.11777 0 0 0
146 15.46323 20.77697 6.51656 0 0 0
147 15.27151 20.64419 5.54414 0 0 0
148 15.07978 21.41994 4.94293 0 0 0
149 14.88806 21.28715 3.97051 0 0 0
150 14.69633 22.06291 3.36930 0 0 0
151 14.50461 21.93012 2.39688 0 0 0
152 20.12342 13.28045 22.15115 0 0 0
153 20.94912 12.81193 21.83695 0 0 0
154 21.77481 12.30557 22.08560 0 0 0
155 22.60051 11.83706 21.77140 0 0 0
156 23.42621 11.33070 22.02004 0 0 0
157 24.25190 10.86218 21.70585 0 0 0
158 25.07760 10.35582 21.95449 0 0 0
159 25.90329 9.88731 21.64030 0 0 0
160 26.72899 9.38095 21.88894 0 0 0
161 27.55469 8.91243 21.57474 0 0 0
162 28.38038 8.40607 21.82339 0 0 0
163 29.20608 7.93756 21.50919 0 0 0
164 30.03178 7.43120 21.75784 0 0 0
165 30.85747 6.96268 21.44364 0 0 0
166 31.68317 6.45632 21.69229 0 0 0
167 32.50886 5.98781 21.37809 0 0 0
168 33.33456 5.48145 21.62674 0 0 0
169 34.16026 5.01293 21.31254 0 0 0
170 34.98595 4.50657 21.56118 0 0 0
171 35.81165 4.03806 21.24699 0 0 0
172 36.63734 3.53170 21.49563 0 0 0
173 37.46304 3.06318 21.18143 0 0 0
174 38.28874 2.55682 21.43008 0 0 0
175 39.11443 2.08831 21.11588 0 0 0
176 39.94013 1.58195 21.36453 0 0 0
177 40.73572 2.18308 21.28923 0 0 0
178 41.53132 2.74132 21.52458 0 0 0
179 42.32691 3.22427 21.15879 0 0 0
180 43.12251 3.78251 21.39414 0 0 0
181 43.91810 4.26546 21.02836 0 0 0
182 44.71370 4.82370 21.26371 0 0 0
183 45.50929 5.30664 20.89793 0 0 0
184 46.30489 5.86489 21.13328 0 0 0
185 47.10048 6.34783 20.76750 0 0 0
186 47.89608 6.90608 21.00285 0 0 0
187 48.69167 7.38902 20.63707 0 0 0
188 49.48727 7.94727 20.87242 0 0 0
189 50.28286 8.43021 20.50664 0 0 0
190 51.07846 8.98846 20.74199 0 0 0
191 51.87405 9.47140 20.37621 0 0 0
192 52.66965 10.02964 20.61156 0 0 0
193 53.46524 10.51259 20.24578 0 0 0
194 54.26084 11.07083 20.48113 0 0 0
195 55.05643 11.55378 20.11535 0 0 0
196 55.85203 12.11202 20.35070 0 0 0
197 56.64762 12.59496 19.98492 0 0 0
198 57.44322 13.15321 20.22027 0 0 0
199 58.23881 13.63615 19.85449 0 0 0
200 59.03441 14.19440 20.08984 0 0 0
201 59.83000 14.67734 19.72406 0 0 0
202 40.05219 0.80268 20.74794 0 0 0
203 40.16424 0.43610 19.82433 0 0 0
204 40.27630 -0.54706 19.67999 0 0 0
205 40.38836 -0.91364 18.75637 0 0 0
206 40.50042 -1.89680 18.61203 0 0 0
207 40.61248 -2.26338 17.68841 0 0 0
208 40.72454 -3.24654 17.54407 0 0 0
209 40.83660 -3.61312 16.62045 0 0 0
210 40.94865 -4.59628 16.47611 0 0 0
211 41.06071 -4.96285 15.55250 0 0 0
212 41.17277 -5.94602 15.40815 0 0 0
213 41.28483 -6.31259 14.48454 0 0 0
214 41.39689 -7.29575 14.34019 0 0 0
215 41.50895 -7.66233 13.41658 0 0 0
216 41.62100 -8.64549 13.27224 0 0 0
217 41.73306 -9.01207 12.34862 0 0 0
218 41.84512 -9.99523 12.20428 0 0 0
219 41.95718 -10.36181 11.28066 0 0 0
220 42.06924 -11.34497 11.13632 0 0 0
221 42.18130 -11.71155 10.21270 0 0 0
222 42.29336 -12.69471 10.06836 0 0 0
223 42.40541 -13.06128 9.14475 0 0 0
224 42.51747 -14.04445 9.00040 0 0 0
225 42.62953 -14.41102 8.07679 0 0 0
226 42.74159 -15.39419 7.93244 0 0 0
227 39.85934 1.25301 22.30542 0 0 0
228 39.77856 0.49770 22.95578 0 0 0
229 39.69777 0.68327 23.93509 0 0 0
230 39.61699 -0.07204 24.58545 0 0 0
231 39.53621 0.11353 25.56476 0 0 0
232 39.45542 -0.64178 26.21512 0 0 0
233 39.37464 -0.45621 27.19443 0 0 0
234 39.29385 -1.21152 27.84479 0 0 0
235 39.21307 -1.02594 28.82409 0 0 0
236 39.13228 -1.78126 29.47446 0 0 0
237 39.05150 -1.59568 30.45376 0 0 0
238 38.97072 -2.35100 31.10413 0 0 0
239 38.88993 -2.16542 32.08343 0 0 0
240 38.80915 -2.92073 32.73380 0 0 0
241 38.72836 -2.73516 33.71310 0 0 0
242 38.64758 -3.49047 34.36346 0 0 0
243 38.56679 -3.30490 35.34277 0 0 0
244 38.48601 -4.06021 35.99313 0 0 0
245 38.40522 -3.87463 36.97244 0 0 0
246 38.32444 -4.62995 37.62280 0 0 0
247 38.24366 -4.44437 38.60211 0 0 0
248 38.16287 -5.19969 39.25247 0 0 0
249 38.08209 -5.01411 40.23177 0 0 0
250 38.00130 -5.76942 40.88214 0 0 0
251 37.92052 -5.58385 41.86144 0 0 0
252 37.75625 -4.60776 42.00379 0 0 0
253 37.59197 -3.83361 42.61511 0 0 0
254 37.42770 -2.91712 42.25033 0 0 0
255 37.26343 -2.14297 42.86165 0 0 0
256 37.09916 -1.22648 42.49688 0 0 0
257 36.93488 -0.45233 43.10820 0 0 0
258 36.77061 0.46416 42.74343 0 0 0
259 36.60634 1.23831 43.35474 0 0 0
260 36.44207 2.15480 42.98997 0 0 0
261 36.27780 2.92894 43.60129 0 0 0
262 36.11352 3.84544 43.23652 0 0 0
263 35.94925 4.61958 43.84784 0 0 0
264 35.78498 5.53607 43.48306 0 0 0
265 35.62071 6.31022 44.09438 0 0 0
266 35.45644 7.22671 43.72961 0 0 0
267 35.29216 8.00086 44.34093 0 0 0
268 35.12789 8.91735 43.97616 0 0 0
269 34.96362 9.69150 44.58747 0 0 0
270 34.79935 10.60799 44.22270 0 0 0
271 34.63508 11.38214 44.83402 0 0 0
272 34.47080 12.29863 44.46925 0 0 0
273 34.30653 13.07278 45.08057 0 0 0
274 34.14226 13.98927 44.71579 0 0 0
275 33.97799 14.76341 45.32711 0 0 0
276 33.81371 15.67991 44.96234 0 0 0
277 38.76715 -5.84961 42.32251 0 0 0
278 39.61379 -6.31030 42.58892 0 0 0
279 40.46042 -6.30993 43.12109 0 0 0
280 41.30705 -6.77062 43.38750 0 0 0
281 42.15369 -6.77025 43.91968 0 0 0
282 43.00032 -7.23094 44.18609 0 0 0
283 43.84696 -7.23057 44.71826 0 0 0
284 44.69359 -7.69126 44.98467 0 0 0
285 45.54023 -7.69089 45.51685 0 0 0
286 46.38686 -8.15158 45.78326 0 0 0
287 47.23349 -8.15120 46.31543 0 0 0
288 48.08013 -8.61189 46.58184 0 0 0
289 48.92676 -8.61152 47.11402 0 0 0
290 49.77340 -9.07221 47.38043 0 0 0
291 50.62003 -9.07184 47.91261 0 0 0
292 51.46667 -9.53253 48.17902 0 0 0
293 52.31330 -9.53216 48.71119 0 0 0
294 53.15993 -9.99285 48.97760 0 0 0
295 54.00657 -9.99248 49.50978 0 0 0
296 54.85320 -10.45317 49.77619 0 0 0
297 55.69984 -10.45279 50.30836 0 0 0
298 56.54647 -10.91348 50.57477 0 0 0
299 57.39310 -10.91311 51.10695 0 0 0
300 58.23974 -11.37380 51.37336 0 0 0
301 59.08637 -11.37343 51.90553 0 0 0
302 37.15726 -6.10834 42.23873 0 0 0
303 36.39400 -6.75120 42.30323 0 0 0
304 35.63073 -7.01677 42.89221 0 0 0
305 34.86747 -7.65964 42.95671 0 0 0
306 34.10421 -7.92521 43.54569 0 0 0
307 33.34095 -8.56807 43.61019 0 0 0
308 32.57769 -8.83365 44.19918 0 0 0
309 31.81443 -9.47651 44.26367 0 0 0
310 31.05117 -9.74208 44.85266 0 0 0
311 30.28790 -10.38495 44.91715 0 0 0
312 29.52464 -10.65052 45.50614 0 0 0
313 28.76138 -11.29338 45.57064 0 0 0
314 27.99812 -11.55896 46.15962 0 0 0
315 27.23486 -12.20182 46.22412 0 0 0
316 26.47160 -12.46740 46.81310 0 0 0
317 25.70834 -13.11026 46.87760 0 0 0
318 24.94508 -13.37583 47.46658 0 0 0
319 24.18181 -14.01870 47.53108 0 0 0
320 23.41855 -14.28427 48.12006 0 0 0
321 22.65529 -14.92713 48.18456 0 0 0
322 21.89203 -15.19271 48.77355 0 0 0
323 21.12877 -15.83557 48.83804 0 0 0
324 20.36551 -16.10115 49.42703 0 0 0
325 19.60225 -16.74401 49.49153 0 0 0
326 18.83899 -17.00958 50.08051 0 0 0
327 18.37953 -17.80820 49.69176 0 0 0
328 17.92008 -18.30544 48.95579 0 0 0
329 17.46063 -19.19143 49.01843 0 0 0
330 17.00118 -19.68867 48.28246 0 0 0
331 16.54172 -20.57466 48.34510 0 0 0
332 16.08227 -21.07191 47.60913 0 0 0
333 15.62282 -21.95790 47.67177 0 0 0
334 15.16337 -22.45514 46.93580 0 0 0
335 14.70392 -23.34113 46.99844 0 0 0
336 14.24446 -23.83838 46.26247 0 0 0
337 13.78501 -24.72437 46.32511 0 0 0
338 13.32556 -25.22161 45.58914 0 0 0
339 12.86611 -26.10760 45.65178 0 0 0
340 12.40665 -26.60484 44.91581 0 0 0
341 11.94720 -27.49083 44.97845 0 0 0
342 11.48775 -27.98808 44.24248 0 0 0
343 11.02830 -28.87407 44.30512 0 0 0
344 10.56885 -29.37131 43.56915 0 0 0
345 10.10939 -30.25730 43.63179 0 0 0
346 9.64994 -30.75455 42.89582 0 0 0
347 9.19049 -31.64054 42.95846 0 0 0
348 8.73104 -32.13778 42.22249 0 0 0
349 8.27158 -33.02377 42.28513 0 0 0
350 7.81213 -33.52101 41.54915 0 0 0
351 7.35268 -34.40701 41.61179 0 0 0
352 18.18978 -16.25194 50.14758 0 0 0
353 17.54057 -15.62933 50.58449 0 0 0
354 16.89136 -14.93965 50.26375 0 0 0
355 16.24215 -14.31704 50.70066 0 0 0
356 15.59295 -13.62737 50.37992 0 0 0
357 14.94374 -13.00476 50.81683 0 0 0
358 14.29453 -12.31508 50.49609 0 0 0
359 13.64532 -11.69247 50.93300 0 0 0
360 12.99611 -11.00280 50.61226 0 0 0
361 12.34691 -10.38019 51.04917 0 0 0
362 11.69770 -9.69051 50.72843 0 0 0
363 11.04849 -9.06791 51.16534 0 0 0
364 10.39928 -8.37823 50.84460 0 0 0
365 9.75007 -7.75562 51.28151 0 0 0
366 9.10087 -7.06594 50.96077 0 0 0
367 8.45166 -6.44334 51.39768 0 0 0
368 7.80245 -5.75366 51.07695 0 0 0
369 7.15324 -5.13105 51.51385 0 0 0
370 6.50403 -4.44137 51.19312 0 0 0
371 5.85483 -3.81877 51.63003 0 0 0
372 5.20562 -3.12909 51.30929 0 0 0
373 4.55641 -2.50648 51.74620 0 0 0
374 3.90720 -1.81680 51.42546 0 0 0
375 3.25800 -1.19420 51.86237 0 0 0
376 2.60879 -0.50452 51.54163 0 0 0
377 19.18330 -17.23457 50.99201 0 0 0
378 19.52761 -17.88517 51.66889 0 0 0
379 19.87193 -17.62427 52.57077 0 0 0
380 20.21624 -18.27486 53.24765 0 0 0
381 20.56056 -18.01396 54.14953 0 0 0
382 20.90487 -18.66456 54.82641 0 0 0
383 21.24919 -18.40365 55.72828 0 0 0
384 21.59350 -19.05425 56.40517 0 0 0
385 21.93782 -18.79335 57.30704 0 0 0
386 22.28213 -19.44394 57.98393 0 0 0
387 22.62645 -19.18304 58.88580 0 0 0
388 22.97076 -19.83364 59.56269 0 0 0
389 23.31508 -19.57273 60.46456 0 0 0
390 23.65939 -20.22333 61.14145 0 0 0
391 24.00370 -19.96243 62.04332 0 0 0
392 24.34802 -20.61302 62.72021 0 0 0
393 24.69233 -20.35212 63.62208 0 0 0
394 25.03665 -21.00272 64.29897 0 0 0
395 25.38096 -20.74181 65.20084 0 0 0
396 25.72528 -21.39241 65.87773 0 0 0
397 26.06959 -21.13151 66.77960 0 0 0
398 26.41391 -21.78210 67.45649 0 0 0
399 26.75822 -21.52120 68.35836 0 0 0
400 27.10254 -22.17179 69.03525 0 0 0
401 27.44685 -21.91089 69.93712 0 0 0
ITEM: TIMESTEP
1000
ITEM: NUMBER OF ATOMS
401
ITEM: BOX BOUNDS pp pp pp
-1.0000000000000000e+03 1.0000000000000000e+03
-1.0000000000000000e+03 1.0000000000000000e+03
-1.0000000000000000e+03 1.0000000000000000e+03
ITEM: ATOMS id x y z ix iy iz
1 0.62317 1.10056 4.05066 0 0 0
2 1.13114 0.39694 4.50865 0 0 0
3 0.59860 0.24290 5.29006 0 0 0
4 -0.07688 0.12929 6.08554 0 0 0
5 0.21561 0.67837 6.88314 0 0 0
6 1.16345 0.91847 7.26586 0 0 0
7 1.16085 0.28515 8.02515 0 0 0
8 0.97538 -0.34039 8.76670 0 0 0
9 0.18183 0.11187 9.14842 0 0 0
10 0.28764 0.78581 9.85620 0 0 0
11 0.83551 0.25584 10.46799 0 0 0
12 1.17682 -0.02240 11.33147 0 0 0
13 1.08912 -0.72390 12.02864 0 0 0
14 0.80816 0.15684 12.36728 0 0 0
15 0.56914 1.03826 12.81238 0 0 0
16 0.43558 1.92300 13.26701 0 0 0
17 0.61468 1.58460 14.24805 0 0 0
18 0.40295 1.59200 15.17677 0 0 0
19 0.28267 1.63375 16.15836 0 0 0
20 0.22192 1.74005 17.12420 0 0 0
21 0.38345 1.86217 18.18669 0 0 0
22 0.69748 1.90885 19.10055 0 0 0
23 0.97397 1.76903 20.02194 0 0 0
24 0.57274 1.10815 20.55093 0 0 0
25 0.87606 1.07318 21.47873 0 0 0
26 0.68817 1.61392 22.30279 0 0 0
27 0.95353 0.72299 22.73366 0 0 0
28 0.53613 0.29124 23.55346 0 0 0
29 0.29151 -0.44439 24.19353 0 0 0
30 0.54828 -1.49834 24.36218 0 0 0
31 0.43840 -2.44098 24.69388 0 0 0
32 0.59580 -3.24646 25.24008 0 0 0
33 0.91209 -3.33307 26.10948 0 0 0
34 1.24936 -4.16768 26.45207 0 0 0
35 1.80232 -4.00451 27.19689 0 0 0
36 1.08054 -4.62483 27.50691 0 0 0
37 1.24332 -5.30258 28.12790 0 0 0
38 0.83561 -6.16959 28.17897 0 0 0
39 0.87585 -6.32405 29.16622 0 0 0
40 1.00639 -6.88979 29.84637 0 0 0
41 1.50954 -7.38426 30.43498 0 0 0
42 1.37756 -7.50183 31.38981 0 0 0
43 1.16714 -8.00281 32.30373 0 0 0
44 1.47377 -8.67485 33.02666 0 0 0
45 2.21584 -9.01581 33.47972 0 0 0
46 1.77019 -9.51086 34.27097 0 0 0
47 2.44483 -9.03733 34.99528 0 0 0
48 2.43011 -9.44235 35.87093 0 0 0
49 1.90627 -9.21121 36.69826 0 0 0
50 1.99520 -9.02327 37.66391 0 0 0
51 1.65795 -9.91527 37.93091 0 0 0
52 -0.13616 1.67893 22.76440 0 0 0
53 -1.07806 2.00015 22.69078 0 0 0
54 -1.97971 1.87887 22.99821 0 0 0
55 -2.85776 2.45317 23.11131 0 0 0
56 -3.65768 2.88390 23.43288 0 0 0
57 -4.52197 2.49325 22.92332 0 0 0
58 -5.34593 2.75329 23.30993 0 0 0
59 -6.07362 3.24970 22.84759 0 0 0
60 -6.52038 3.85273 22.17427 0 0 0
61 -7.28935 4.38652 21.99741 0 0 0
62 -8.18362 3.88018 21.86111 0 0 0
63 -8.65112 4.15607 20.97124 0 0 0
64 -9.48243 4.66633 21.03355 0 0 0
65 -10.19121 4.55230 21.81868 0 0 0
66 -11.11218 4.48056 21.68309 0 0 0
67 -12.04564 4.95787 21.54018 0 0 0
68 -12.78235 5.55801 21.53081 0 0 0
69 -13.41120 6.07572 20.91835 0 0 0
70 -14.35044 6.08140 21.00080 0 0 0
71 -14.98344 5.84155 20.19237 0 0 0
72 -15.47327 6.49399 20.62957 0 0 0
73 -15.87423 6.95409 21.42222 0 0 0
74 -15.90518 7.29373 22.32600 0 0 0
75 -15.28701 8.07755 22.42026 0 0 0
76 -15.11497 8.94062 21.98838 0 0 0
77 1.15641 2.46020 22.24447 0 0 0
78 1.91548 3.06037 22.07560 0 0 0
79 2.08491 4.01990 22.11036 0 0 0
80 2.99330 4.19715 22.44390 0 0 0
81 3.39535 4.92176 21.96423 0 0 0
82 3.85859 5.79523 21.74891 0 0 0
83 4.77002 5.88121 21.34106 0 0 0
84 5.59747 6.40542 20.98864 0 0 0
85 6.42857 6.89594 20.58880 0 0 0
86 7.01603 7.57371 21.03972 0 0 0
87 8.04613 7.73428 21.05757 0 0 0
88 8.99540 7.91175 21.29232 0 0 0
89 9.91609 7.93843 21.59004 0 0 0
90 10.54055 8.64273 22.03965 0 0 0
91 11.40662 9.15030 21.80868 0 0 0
92 12.04883 9.71868 21.34183 0 0 0
93 12.91708 10.19083 21.40591 0 0 0
94 13.88974 10.41168 21.10730 0 0 0
95 14.46722 10.76996 21.84874 0 0 0
96 15.21068 11.21832 22.39862 0 0 0
97 16.08680 11.65888 22.10952 0 0 0
98 16.95018 12.07308 21.70472 0 0 0
99 17.86409 12.37964 21.67696 0 0 0
100 18.67506 12.74143 21.98681 0 0 0
101 19.46751 13.31373 22.07258 0 0 0
102 19.68728 14.36597 22.33358 0 0 0
103 19.74797 15.35777 22.16359 0 0 0
104 19.94920 15.84145 22.98511 0 0 0
105 19.90919 16.80953 23.27195 0 0 0
106 20.34089 17.72734 23.34307 0 0 0
107 20.35845 18.43747 24.01867 0 0 0
108 20.36037 19.03847 24.77298 0 0 0
109 20.16736 19.92157 25.17562 0 0 0
110 19.24402 20.07472 25.55823 0 0 0
111 19.05053 20.94527 25.90136 0 0 0
112 18.95622 21.41750 26.80698 0 0 0
113 19.47879 21.53114 27.68475 0 0 0
114 19.30595 21.80092 28.70177 0 0 0
115 19.08842 22.11557 29.63839 0 0 0
116 19.52324 23.00174 29.99694 0 0 0
117 19.69026 23.95312 30.17674 0 0 0
118 19.24981 24.50851 30.87339 0 0 0
119 19.93979 25.12723 31.19923 0 0 0
120 19.85219 25.80489 31.84271 0 0 0
121 20.37811 26.54677 32.29446 0 0 0
122 20.49258 27.31875 32.85787 0 0 0
123 19.68826 27.66877 33.18090 0 0 0
124 20.09034 27.52491 34.10267 0 0 0
125 19.58564 27.78267 34.96528 0 0 0
126 20.04392 27.93809 35.81784 0 0 0
127 19.40555 13.93818 21.23891 0 0 0
128 18.93300 14.37105 20.50707 0 0 0
129 18.73775 15.31067 20.87885 0 0 0
130 18.77962 15.49496 19.95870 0 0 0
131 18.68688 16.12072 19.15830 0 0 0
132 18.08243 16.68893 18.73801 0 0 0
133 17.61396 17.17666 18.00160 0 0 0
134 17.88052 17.18341 17.10596 0 0 0
135 18.50853 18.02879 17.30546 0 0 0
136 17.86650 18.26823 16.65116 0 0 0
137 17.70622 18.70789 15.78809 0 0 0
138 17.76317 18.91234 14.89275 0 0 0
139 17.56166 19.22154 14.02366 0 0 0
140 17.67141 19.06139 13.10505 0 0 0
141 17.43280 19.40137 12.22416 0 0 0
142 17.19033 18.74415 11.47915 0 0 0
143 16.32824 18.45358 11.05441 0 0 0
144 16.00211 18.56032 10.11778 0 0 0
145 15.26098 17.97665 9.93244 0 0 0
146 14.77163 18.55539 9.18121 0 0 0
147 15.10862 18.84990 8.35576 0 0 0
148 15.22304 18.86014 7.42871 0 0 0
149 15.62781 19.31827 6.69118 0 0 0
150 15.11278 19.73469 5.98198 0 0 0
151 14.53429 19.53137 5.19509 0 0 0
152 20.21671 12.75647 22.09721 0 0 0
153 20.93033 12.08804 21.98930 0 0 0
154 21.43346 11.15851 22.07593 0 0 0
155 22.43818 10.74176 22.09229 0 0 0
156 23.31247 11.16307 22.44394 0 0 0
157 24.24718 10.89797 22.61667 0 0 0
158 24.73439 10.05434 22.55952 0 0 0
159 25.41267 9.56580 22.04092 0 0 0
160 26.20377 9.04502 21.93862 0 0 0
161 26.50958 8.26544 22.44608 0 0 0
162 27.47312 8.27324 22.85082 0 0 0
163 28.37214 8.11279 23.14129 0 0 0
164 28.74609 7.22939 23.33626 0 0 0
165 29.59611 6.85907 23.10005 0 0 0
166 30.61745 6.88863 22.83131 0 0 0
167 31.44256 6.52359 22.43202 0 0 0
168 32.20751 5.99347 22.09572 0 0 0
169 33.23713 5.67845 22.11087 0 0 0
170 34.10669 5.32829 22.29618 0 0 0
171 34.82034 4.68294 22.46830 0 0 0
172 35.63041 4.24354 22.07009 0 0 0
173 36.36109 3.58369 21.88049 0 0 0
174 37.19301 3.25010 22.24140 0 0 0
175 37.98006 2.66753 22.06640 0 0 0
176 38.55690 1.78015 21.81359 0 0 0
177 39.36546 2.31314 21.89463 0 0 0
178 40.17542 2.82793 22.01690 0 0 0
179 41.00078 3.45538 21.85022 0 0 0
180 41.96572 3.60790 21.69271 0 0 0
181 42.75665 4.20298 21.67538 0 0 0
182 43.63230 4.36814 22.10142 0 0 0
183 43.90537 3.73629 21.47162 0 0 0
184 44.85444 3.75337 21.67336 0 0 0
185 45.44928 4.47220 21.70252 0 0 0
186 45.05503 5.02318 22.36122 0 0 0
187 45.72297 5.72526 22.59428 0 0 0
188 46.43152 6.41559 22.75252 0 0 0
189 46.86166 7.21046 22.93982 0 0 0
190 46.98050 7.14812 21.97934 0 0 0
191 47.67065 7.81494 21.84327 0 0 0
192 48.50719 8.21696 21.57389 0 0 0
193 49.00456 9.06273 21.86284 0 0 0
194 49.93127 9.41632 21.98595 0 0 0
195 50.66450 9.82502 22.45764 0 0 0
196 51.41316 10.19893 21.92427 0 0 0
197 51.18119 9.22593 21.63391 0 0 0
198 51.92608 8.68055 21.15450 0 0 0
199 52.56160 8.34724 20.49178 0 0 0
200 52.87018 7.69409 19.85108 0 0 0
201 53.29858 6.82324 19.58847 0 0 0
202 38.58902 0.89198 21.48250 0 0 0
203 38.38306 0.09395 20.76206 0 0 0
204 38.97179 -0.50430 20.27602 0 0 0
205 39.35061 -0.83339 19.45984 0 0 0
206 40.04756 -1.25852 18.97280 0 0 0
207 40.62250 -1.97053 18.64737 0 0 0
208 40.58138 -2.21273 17.68709 0 0 0
209 40.74855 -2.91142 17.04974 0 0 0
210 40.60597 -3.16909 16.18761 0 0 0
211 40.89952 -3.95519 15.72455 0 0 0
212 41.12940 -4.23500 14.74310 0 0 0
213 41.31854 -4.49973 13.74446 0 0 0
214 41.97851 -4.85449 13.08099 0 0 0
215 41.61212 -5.54260 12.51486 0 0 0
216 41.76040 -6.26861 11.88028 0 0 0
217 41.02360 -6.65700 11.49405 0 0 0
218 41.23313 -6.79958 10.53910 0 0 0
219 41.18168 -7.28151 9.56093 0 0 0
220 41.51698 -8.05489 10.10769 0 0 0
221 41.85348 -8.26403 9.24092 0 0 0
222 42.00682 -8.90207 8.54937 0 0 0
223 42.27011 -9.80767 8.34620 0 0 0
224 42.91044 -10.18864 7.72309 0 0 0
225 42.80448 -11.21714 7.63974 0 0 0
226 42.78366 -11.99633 7.01483 0 0 0
227 38.60665 1.25387 22.64919 0 0 0
228 38.57774 0.49935 23.29108 0 0 0
229 39.00389 -0.26255 23.81438 0 0 0
230 38.94961 -0.35338 24.74720 0 0 0
231 38.78705 -0.74728 25.61284 0 0 0
232 39.04575 -1.42361 26.21389 0 0 0
233 39.69060 -1.30515 26.97880 0 0 0
234 39.83971 -1.35725 27.95206 0 0 0
235 40.11823 -1.85590 28.78976 0 0 0
236 39.58375 -1.87194 29.65100 0 0 0
237 39.91861 -1.96719 30.59106 0 0 0
238 40.05463 -2.76565 31.26857 0 0 0
239 39.73416 -3.10398 32.12308 0 0 0
240 39.18520 -3.35856 32.82969 0 0 0
241 39.15439 -4.14069 33.58199 0 0 0
242 39.50522 -4.75480 34.30504 0 0 0
243 39.49009 -5.22805 35.23286 0 0 0
244 39.03299 -4.97438 36.07924 0 0 0
245 39.19608 -5.62068 36.80162 0 0 0
246 38.46917 -5.54792 37.52014 0 0 0
247 38.51389 -5.97061 38.42720 0 0 0
248 38.98215 -6.41174 39.19237 0 0 0
249 38.82271 -6.13690 40.08062 0 0 0
250 38.15428 -6.12275 40.76304 0 0 0
251 37.70330 -6.12570 41.65248 0 0 0
252 37.46372 -5.22132 41.69200 0 0 0
253 37.58487 -4.21941 41.46584 0 0 0
254 37.92874 -3.32862 41.65115 0 0 0
255 37.89349 -2.82921 42.49689 0 0 0
256 37.38249 -2.02791 42.61678 0 0 0
257 37.41403 -1.25043 42.03427 0 0 0
258 37.14910 -0.34354 42.07537 0 0 0
259 37.16753 0.69152 42.00280 0 0 0
260 37.15201 1.67057 41.79684 0 0 0
261 36.65902 2.31293 42.36023 0 0 0
262 36.10394 2.71191 43.04204 0 0 0
263 35.53312 3.48669 43.36627 0 0 0
264 35.74907 4.42168 43.25464 0 0 0
265 35.64447 5.23756 43.75046 0 0 0
266 36.16312 6.13973 43.54183 0 0 0
267 36.18305 6.91861 44.13470 0 0 0
268 36.20206 7.94915 44.32598 0 0 0
269 35.83503 8.87526 44.42907 0 0 0
270 35.25111 9.64573 44.65613 0 0 0
271 35.35005 10.56787 44.76304 0 0 0
272 35.72510 11.44091 44.83319 0 0 0
273 35.73934 12.20706 45.40605 0 0 0
274 35.56077 12.84872 46.04996 0 0 0
275 35.41655 13.60108 46.67745 0 0 0
276 34.61390 13.79517 47.29341 0 0 0
277 38.47335 -6.67493 42.10201 0 0 0
278 39.44116 -6.73306 42.25003 0 0 0
279 40.27739 -7.22885 42.52545 0 0 0
280 41.10754 -7.04820 43.00049 0 0 0
281 41.65915 -6.73926 43.82281 0 0 0
282 42.33303 -6.83397 44.47669 0 0 0
283 42.54911 -7.64101 45.05997 0 0 0
284 43.46081 -7.75462 45.45844 0 0 0
285 44.02791 -8.53349 45.71840 0 0 0
286 44.99394 -8.19839 45.67420 0 0 0
287 45.95681 -8.13750 45.84521 0 0 0
288 46.82948 -8.02808 46.25416 0 0 0
289 47.59195 -7.92495 45.68592 0 0 0
290 48.36070 -7.71064 46.27683 0 0 0
291 49.12194 -7.54860 46.91269 0 0 0
292 49.58848 -8.32823 47.32225 0 0 0
293 50.37350 -8.80942 46.85577 0 0 0
294 50.69548 -9.47174 47.59944 0 0 0
295 51.21272 -9.01844 48.17901 0 0 0
296 52.04105 -9.52580 48.34840 0 0 0
297 52.98392 -9.47970 48.60491 0 0 0
298 53.64339 -9.31979 49.25620 0 0 0
299 53.88599 -10.23718 49.67265 0 0 0
300 54.28739 -11.14417 49.87423 0 0 0
301 54.45466 -12.09257 49.57640 0 0 0
302 37.10552 -6.86191 41.98091 0 0 0
303 36.33285 -7.10763 42.55843 0 0 0
304 35.62685 -7.57509 43.11490 0 0 0
305 35.08115 -8.34179 42.79702 0 0 0
306 34.56302 -8.87161 43.38173 0 0 0
307 33.79756 -9.10159 43.93518 0 0 0
308 33.46550 -9.93833 44.25864 0 0 0
309 32.66417 -10.28465 44.65922 0 0 0
310 31.72322 -9.95171 44.78475 0 0 0
311 31.00680 -10.42264 45.23453 0 0 0
312 30.24380 -11.01338 45.56337 0 0 0
313 29.40033 -11.00565 46.18544 0 0 0
314 28.94082 -11.86505 46.19009 0 0 0
315 28.21925 -12.42038 46.42073 0 0 0
316 27.36500 -12.84506 46.59026 0 0 0
317 26.39432 -12.77848 46.70421 0 0 0
318 25.54161 -13.13215 47.04193 0 0 0
319 25.04266 -14.00714 47.30271 0 0 0
320 24.56274 -14.39046 48.01779 0 0 0
321 23.64173 -14.10210 48.07297 0 0 0
322 22.62330 -14.24470 47.95661 0 0 0
323 21.78981 -14.62800 48.32612 0 0 0
324 21.25392 -15.31877 48.79240 0 0 0
325 20.50956 -15.72226 49.31870 0 0 0
326 19.92235 -16.23092 49.86267 0 0 0
327 19.40713 -16.96595 49.65950 0 0 0
328 18.55386 -17.39340 49.61061 0 0 0
329 17.95409 -18.03580 50.14109 0 0 0
330 17.19410 -18.41666 49.68444 0 0 0
331 17.20885 -19.27123 50.03862 0 0 0
332 17.24643 -20.26323 49.75784 0 0 0
333 16.71209 -21.21700 49.76481 0 0 0
334 15.88057 -21.55771 49.47037 0 0 0
335 14.97712 -21.75655 49.18352 0 0 0
336 14.28886 -22.40944 48.79412 0 0 0
337 13.84155 -23.20218 49.23197 0 0 0
338 13.10039 -23.83106 48.98876 0 0 0
339 13.05042 -24.36930 48.13896 0 0 0
340 12.47397 -25.25216 47.86812 0 0 0
341 12.17426 -25.99328 47.36001 0 0 0
342 11.73144 -26.83255 47.10519 0 0 0
343 11.26085 -27.22262 46.36463 0 0 0
344 11.11315 -27.71684 45.57344 0 0 0
345 11.07431 -28.68865 45.29455 0 0 0
346 11.16153 -29.19462 44.42536 0 0 0
347 10.61172 -29.96850 44.62286 0 0 0
348 9.95698 -30.40164 43.90063 0 0 0
349 10.27382 -30.78918 43.07513 0 0 0
350 10.36295 -31.02102 42.14339 0 0 0
351 10.31991 -31.65627 41.36226 0 0 0
352 19.10975 -15.89730 49.53284 0 0 0
353 18.28750 -15.43031 49.28507 0 0 0
354 17.33110 -15.43620 49.37439 0 0 0
355 16.63245 -14.75974 49.74098 0 0 0
356 15.90852 -14.14289 49.75793 0 0 0
357 14.99881 -13.71974 49.78836 0 0 0
358 14.79474 -13.52494 50.70867 0 0 0
359 14.29654 -12.75548 51.03495 0 0 0
360 13.51529 -12.15940 51.14538 0 0 0
361 12.95512 -11.57660 50.65231 0 0 0
362 12.03760 -11.60122 51.01818 0 0 0
363 11.39252 -10.98760 51.51132 0 0 0
364 11.00287 -10.22882 51.91813 0 0 0
365 10.47761 -9.65113 51.31366 0 0 0
366 10.32443 -8.86175 51.84714 0 0 0
367 9.34077 -8.75066 51.80956 0 0 0
368 8.47184 -8.34152 52.36232 0 0 0
369 7.95252 -7.63185 52.83623 0 0 0
370 7.40341 -6.82024 52.89704 0 0 0
371 6.62135 -7.42234 53.01428 0 0 0
372 5.80436 -7.14235 52.65206 0 0 0
373 6.05548 -7.44935 51.82662 0 0 0
374 5.23034 -7.19383 51.44501 0 0 0
375 4.76654 -6.35426 51.55187 0 0 0
376 4.29876 -5.63191 51.95828 0 0 0
377 20.53323 -16.52615 50.54585 0 0 0
378 21.27499 -17.13164 50.76251 0 0 0
379 21.87188 -17.16086 51.60274 0 0 0
380 21.59902 -17.63656 52.39116 0 0 0
381 22.03089 -18.11964 53.06213 0 0 0
382 22.62503 -17.88669 53.85661 0 0 0
383 23.30761 -17.79507 54.47484 0 0 0
384 22.95482 -17.15915 55.18618 0 0 0
385 23.04242 -17.07706 56.18946 0 0 0
386 23.19931 -17.95317 56.46207 0 0 0
387 23.33796 -18.19536 57.36591 0 0 0
388 23.40068 -18.88366 58.12543 0 0 0
389 23.36791 -19.10327 59.08030 0 0 0
390 23.55923 -19.63407 59.88413 0 0 0
391 23.86393 -19.20187 60.76590 0 0 0
392 24.55397 -18.83855 61.40598 0 0 0
393 24.87871 -19.56106 62.01561 0 0 0
394 25.52602 -19.31483 62.75997 0 0 0
395 25.96740 -20.21420 63.06423 0 0 0
396 26.61964 -19.88638 63.75381 0 0 0
397 26.30559 -20.59653 64.31387 0 0 0
398 25.50430 -21.02178 64.60805 0 0 0
399 25.06577 -21.04190 65.45529 0 0 0
400 25.52000 -21.20352 66.26402 0 0 0
401 25.76604 -20.40751 66.80783 0 0 0
ITEM: TIMESTEP
2000
ITEM: NUMBER OF ATOMS
401
ITEM: BOX BOUNDS pp pp pp
-1.0000000000000000e+03 1.0000000000000000e+03
-1.0000000000000000e+03 1.0000000000000000e+03
-1.0000000000000000e+03 1.0000000000000000e+03
ITEM: ATOMS id x y z ix iy iz
1 2.02614 0.03565 8.12432 0 0 0