ITEM: TIMESTEP
0
ITEM: NUMBER OF ATOMS
293
ITEM: BOX BOUNDS pp pp pp
-1.0000000000000000e+03 1.0000000000000000e+03
-1.0000000000000000e+03 1.0000000000000000e+03
-1.0000000000000000e+03 1.0000000000000000e+03
ITEM: ATOMS id x y z ix iy iz
1 0.00000 0.00000 0.00000 0 0 0
2 0.00000 0.00000 1.00000 0 0 0
3 0.00000 -0.50000 1.86603 0 0 0
4 0.00000 0.00000 2.73205 0 0 0
5 0.00000 -0.50000 3.59808 0 0 0
6 0.00000 0.00000 4.46410 0 0 0
7 0.00000 -0.50000 5.33013 0 0 0
8 0.00000 0.00000 6.19615 0 0 0
9 0.00000 -0.50000 7.06218 0 0 0
10 0.00000 0.00000 7.92820 0 0 0
11 0.00000 -0.50000 8.79423 0 0 0
12 0.00000 0.00000 9.66025 0 0 0
13 0.00000 -0.50000 10.52628 0 0 0
14 0.00000 0.00000 11.39230 0 0 0
15 0.30135 -0.60661 12.12798 0 0 0
16 0.60270 -1.49978 12.46178 0 0 0
17 0.90405 -1.65728 13.40220 0 0 0
18 1.20541 -2.55046 13.73601 0 0 0
19 1.50676 -2.70796 14.67642 0 0 0
20 1.80811 -3.60114 15.01023 0 0 0
21 2.10946 -3.75864 15.95064 0 0 0
22 2.41081 -4.65181 16.28445 0 0 0
23 2.71216 -4.80931 17.22487 0 0 0
24 3.01351 -5.70249 17.55867 0 0 0
25 3.31486 -5.85999 18.49909 0 0 0
26 3.61622 -6.75316 18.83289 0 0 0
27 3.91757 -6.91067 19.77331 0 0 0
28 -0.92419 0.32765 11.58859 0 0 0
29 -1.84837 0.51326 11.92239 0 0 0
30 -2.77256 0.89514 11.92855 0 0 0
31 -3.69675 1.08075 12.26236 0 0 0
32 -4.62094 1.46264 12.26852 0 0 0
33 -5.54512 1.64825 12.60233 0 0 0
34 -6.46931 2.03014 12.60849 0 0 0
35 -7.39350 2.21575 12.94230 0 0 0
36 -8.31769 2.59764 12.94846 0 0 0
37 -9.24187 2.78325 13.28226 0 0 0
38 -10.16606 3.16514 13.28843 0 0 0
39 -11.09025 3.35075 13.62223 0 0 0
40 -12.01443 3.73264 13.62839 0 0 0
41 0.62284 0.77967 11.32761 0 0 0
42 1.24567 1.48724 11.66141 0 0 0
43 1.86851 2.13011 11.21555 0 0 0
44 2.49134 2.83767 11.54936 0 0 0
45 3.11418 3.48054 11.10349 0 0 0
46 3.73702 4.18810 11.43730 0 0 0
47 4.35985 4.83097 10.99143 0 0 0
48 4.98269 5.53854 11.32524 0 0 0
49 5.60552 6.18140 10.87937 0 0 0
50 6.22836 6.88897 11.21318 0 0 0
51 6.85120 7.53184 10.76731 0 0 0
52 7.47403 8.23940 11.10112 0 0 0
53 8.09687 8.88227 10.65525 0 0 0
54 8.71970 9.58983 10.98906 0 0 0
55 8.21673 10.23082 11.56886 0 0 0
56 7.71376 10.49602 12.39146 0 0 0
57 7.21079 11.34103 12.57309 0 0 0
58 6.70782 11.60624 13.39570 0 0 0
59 6.20485 12.45124 13.57732 0 0 0
60 5.70187 12.71645 14.39993 0 0 0
61 5.19890 13.56145 14.58156 0 0 0
62 4.69593 13.82666 15.40417 0 0 0
63 4.19296 14.67167 15.58579 0 0 0
64 3.68999 14.93688 16.40840 0 0 0
65 3.18702 15.78188 16.59003 0 0 0
66 2.68405 16.04709 17.41264 0 0 0
67 2.18107 16.89209 17.59426 0 0 0
68 9.11307 10.08177 10.21236 0 0 0
69 9.50643 10.89614 9.78568 0 0 0
70 9.89980 10.93382 8.86707 0 0 0
71 10.29316 11.74820 8.44039 0 0 0
72 10.68652 11.78587 7.52178 0 0 0
73 11.07989 12.60025 7.09510 0 0 0
74 11.47325 12.63792 6.17649 0 0 0
75 11.86662 13.45230 5.74981 0 0 0
76 12.25998 13.48998 4.83120 0 0 0
77 12.65334 14.30435 4.40453 0 0 0
78 13.04671 14.34203 3.48591 0 0 0
79 13.44007 15.15641 3.05924 0 0 0
80 13.83344 15.19408 2.14063 0 0 0
81 9.45303 9.16549 11.52025 0 0 0
82 10.18636 8.53240 11.76810 0 0 0
83 10.91969 8.43050 12.44030 0 0 0
84 11.65302 7.79742 12.68815 0 0 0
85 12.38635 7.69552 13.36034 0 0 0
86 13.11968 7.06243 13.60819 0 0 0
87 13.85300 6.96053 14.28039 0 0 0
88 14.58633 6.32745 14.52824 0 0 0
89 15.31966 6.22555 15.20043 0 0 0
90 16.05299 5.59246 15.44828 0 0 0
91 16.78632 5.49056 16.12048 0 0 0
92 17.51965 4.85748 16.36833 0 0 0
93 18.25297 4.75558 17.04052 0 0 0
94 18.98630 4.12249 17.28838 0 0 0
95 19.42541 3.77887 16.45825 0 0 0
96 19.86452 3.89634 15.56753 0 0 0
97 20.30363 3.18370 15.02043 0 0 0
98 20.74274 3.30117 14.12971 0 0 0
99 21.18185 2.58852 13.58262 0 0 0
100 21.62095 2.70600 12.69189 0 0 0
101 22.06006 1.99335 12.14480 0 0 0
102 22.49917 2.11083 11.25408 0 0 0
103 22.93828 1.39818 10.70698 0 0 0
104 23.37739 1.51566 9.81626 0 0 0
105 23.81650 0.80301 9.26916 0 0 0
106 24.25561 0.92048 8.37844 0 0 0
107 24.69472 0.20783 7.83134 0 0 0
108 18.60504 3.35586 17.80502 0 0 0
109 18.22379 2.43362 17.86913 0 0 0
110 17.84253 2.02802 18.69987 0 0 0
111 17.46127 1.10577 18.76398 0 0 0
112 17.08001 0.70017 19.59472 0 0 0
113 16.69875 -0.22207 19.65883 0 0 0
114 16.31749 -0.62767 20.48957 0 0 0
115 15.93624 -1.54991 20.55368 0 0 0
116 15.55498 -1.95551 21.38442 0 0 0
117 15.17372 -2.87776 21.44853 0 0 0
118 14.79246 -3.28336 22.27927 0 0 0
119 14.41120 -4.20560 22.34338 0 0 0
120 14.02995 -4.61120 23.17412 0 0 0
121 19.66282 4.59876 17.85006 0 0 0
122 20.33934 4.73038 18.57463 0 0 0
123 21.01586 5.42368 18.82293 0 0 0
124 21.69238 5.55529 19.54750 0 0 0
125 22.36890 6.24860 19.79580 0 0 0
126 23.04542 6.38021 20.52036 0 0 0
127 23.72194 7.07352 20.76866 0 0 0
128 24.39846 7.20513 21.49323 0 0 0
129 25.07498 7.89843 21.74153 0 0 0
130 25.75150 8.03005 22.46610 0 0 0
131 26.42802 8.72335 22.71440 0 0 0
132 27.10454 8.85497 23.43897 0 0 0
133 27.78106 9.54827 23.68727 0 0 0
134 28.45758 9.67989 24.41183 0 0 0
135 27.98928 9.82612 25.28322 0 0 0
136 27.52098 9.51706 26.11097 0 0 0
137 27.05267 10.07939 26.79250 0 0 0
138 26.58437 9.77033 27.62026 0 0 0
139 26.11607 10.33266 28.30178 0 0 0
140 25.64777 10.02361 29.12954 0 0 0
141 25.17946 10.58593 29.81106 0 0 0
142 24.71116 10.27688 30.63882 0 0 0
143 24.24286 10.83921 31.32035 0 0 0
144 23.77456 10.53015 32.14810 0 0 0
145 23.30625 11.09248 32.82963 0 0 0
146 22.83795 10.78342 33.65738 0 0 0
147 22.36965 11.34575 34.33891 0 0 0
148 29.02290 10.47706 24.19989 0 0 0
149 29.58823 11.27341 24.41493 0 0 0
150 30.15355 11.85781 23.83279 0 0 0
151 30.71888 12.65416 24.04783 0 0 0
152 31.28420 13.23856 23.46569 0 0 0
153 31.84953 14.03490 23.68073 0 0 0
154 32.41485 14.61931 23.09859 0 0 0
155 32.98018 15.41565 23.31363 0 0 0
156 33.54550 16.00005 22.73150 0 0 0
157 34.11083 16.79640 22.94653 0 0 0
158 34.67615 17.38080 22.36440 0 0 0
159 35.24147 18.17715 22.57944 0 0 0
160 35.80680 18.76155 21.99730 0 0 0
161 29.03804 8.86829 24.47799 0 0 0
162 29.61850 8.13235 24.12949 0 0 0
163 30.19896 7.46256 24.59258 0 0 0
164 30.77941 6.72662 24.24407 0 0 0
165 31.35987 6.05683 24.70717 0 0 0
166 31.94033 5.32089 24.35866 0 0 0
167 32.52079 4.65111 24.82175 0 0 0
168 33.10125 3.91516 24.47325 0 0 0
169 33.68171 3.24538 24.93634 0 0 0
170 34.26217 2.50943 24.58783 0 0 0
171 34.84262 1.83965 25.05093 0 0 0
172 35.42308 1.10371 24.70242 0 0 0
173 36.00354 0.43392 25.16551 0 0 0
174 36.58400 -0.30202 24.81701 0 0 0
175 37.38981 0.09010 24.37326 0 0 0
176 38.19562 0.65156 24.18503 0 0 0
177 39.00143 0.76928 23.60468 0 0 0
178 39.80724 1.33074 23.41644 0 0 0
179 40.61305 1.44845 22.83609 0 0 0
180 41.41886 2.00991 22.64786 0 0 0
181 42.22468 2.12763 22.06750 0 0 0
182 43.03049 2.68909 21.87927 0 0 0
183 43.83630 2.80681 21.29892 0 0 0
184 44.64211 3.36827 21.11068 0 0 0
185 45.44792 3.48598 20.53033 0 0 0
186 46.25373 4.04744 20.34210 0 0 0
187 47.05954 4.16516 19.76174 0 0 0
188 36.07057 -0.84644 24.15368 0 0 0
189 35.55714 -0.98626 23.30702 0 0 0
190 35.04371 -1.78940 23.00477 0 0 0
191 34.53028 -1.92921 22.15811 0 0 0
192 34.01685 -2.73236 21.85586 0 0 0
193 33.50342 -2.87217 21.00919 0 0 0
194 32.98999 -3.67531 20.70695 0 0 0
195 32.47656 -3.81513 19.86028 0 0 0
196 31.96313 -4.61827 19.55803 0 0 0
197 31.44970 -4.75809 18.71137 0 0 0
198 30.93627 -5.56123 18.40912 0 0 0
199 30.42284 -5.70104 17.56246 0 0 0
200 29.90941 -6.50418 17.26021 0 0 0
201 36.87290 -0.88672 25.57508 0 0 0
202 37.16181 -1.77211 25.93924 0 0 0
203 37.45071 -1.89944 26.88809 0 0 0
204 37.73961 -2.78483 27.25225 0 0 0
205 38.02851 -2.91216 28.20110 0 0 0
206 38.31742 -3.79755 28.56526 0 0 0
207 38.60632 -3.92488 29.51411 0 0 0
208 38.89522 -4.81027 29.87827 0 0 0
209 39.18412 -4.93760 30.82713 0 0 0
210 39.47303 -5.82300 31.19129 0 0 0
211 39.76193 -5.95032 32.14014 0 0 0
212 40.05083 -6.83572 32.50430 0 0 0
213 40.33974 -6.96304 33.45315 0 0 0
214 40.62864 -7.84844 33.81731 0 0 0
215 41.05255 -7.71847 34.71364 0 0 0
216 41.47647 -8.05408 35.55487 0 0 0
217 41.90038 -7.49337 36.26613 0 0 0
218 42.32429 -7.82898 37.10736 0 0 0
219 42.74821 -7.26826 37.81862 0 0 0
220 43.17212 -7.60388 38.65984 0 0 0
221 43.59603 -7.04316 39.37111 0 0 0
222 44.01995 -7.37877 40.21233 0 0 0
223 44.44386 -6.81805 40.92360 0 0 0
224 44.86777 -7.15367 41.76482 0 0 0
225 45.29169 -6.59295 42.47608 0 0 0
226 45.71560 -6.92856 43.31731 0 0 0
227 46.13951 -6.36785 44.02857 0 0 0
228 41.28961 -8.26618 33.19392 0 0 0
229 41.95058 -8.31625 32.44518 0 0 0
230 42.61155 -8.98972 32.11418 0 0 0
231 43.27251 -9.03980 31.36544 0 0 0
232 43.93348 -9.71327 31.03444 0 0 0
233 44.59445 -9.76334 30.28570 0 0 0
234 45.25542 -10.43681 29.95470 0 0 0
235 45.91639 -10.48689 29.20596 0 0 0
236 46.57736 -11.16036 28.87496 0 0 0
237 47.23833 -11.21044 28.12622 0 0 0
238 47.89930 -11.88390 27.79522 0 0 0
239 48.56027 -11.93398 27.04648 0 0 0
240 49.22124 -12.60745 26.71547 0 0 0
241 39.83307 -8.44731 33.90905 0 0 0
242 39.03750 -9.01182 33.68905 0 0 0
243 38.24193 -9.48460 34.06794 0 0 0
244 37.44636 -10.04911 33.84795 0 0 0
245 36.65079 -10.52189 34.22683 0 0 0
246 35.85522 -11.08640 34.00684 0 0 0
247 35.05965 -11.55917 34.38572 0 0 0
248 34.26408 -12.12368 34.16573 0 0 0
249 33.46851 -12.59646 34.54461 0 0 0
250 32.67294 -13.16097 34.32462 0 0 0
251 31.87738 -13.63374 34.70350 0 0 0
252 31.08181 -14.19825 34.48351 0 0 0
253 30.28624 -14.67103 34.86240 0 0 0
254 29.49067 -15.23554 34.64240 0 0 0
255 29.73724 -16.20205 34.71349 0 0 0
256 29.98380 -17.07462 34.29179 0 0 0
257 30.23037 -17.87611 34.83661 0 0 0
258 30.47694 -18.74868 34.41492 0 0 0
259 30.72351 -19.55016 34.95974 0 0 0
260 30.97008 -20.42273 34.53804 0 0 0
261 31.21665 -21.22421 35.08286 0 0 0
262 31.46322 -22.09678 34.66117 0 0 0
263 31.70979 -22.89826 35.20599 0 0 0
264 31.95635 -23.77083 34.78430 0 0 0
265 32.20292 -24.57232 35.32912 0 0 0
266 32.44949 -25.44489 34.90742 0 0 0
267 32.69606 -26.24637 35.45224 0 0 0
268 29.18793 -15.03694 33.71025 0 0 0
269 28.88518 -14.39887 33.00228 0 0 0
270 28.58244 -14.69295 32.09572 0 0 0
271 28.27970 -14.05489 31.38775 0 0 0
272 27.97696 -14.34897 30.48118 0 0 0
273 27.67422 -13.71090 29.77322 0 0 0
274 27.37148 -14.00498 28.86665 0 0 0
275 27.06874 -13.36692 28.15868 0 0 0
276 26.76599 -13.66100 27.25212 0 0 0
277 26.46325 -13.02293 26.54415 0 0 0
278 26.16051 -13.31702 25.63759 0 0 0
279 25.85777 -12.67895 24.92962 0 0 0
280 25.55503 -12.97303 24.02305 0 0 0
281 28.75014 -15.03294 35.28316 0 0 0
282 28.00961 -15.17786 35.93938 0 0 0
283 27.26909 -14.68202 36.39299 0 0 0
284 26.52856 -14.82694 37.04920 0 0 0
285 25.78803 -14.33110 37.50282 0 0 0
286 25.04751 -14.47602 38.15903 0 0 0
287 24.30698 -13.98018 38.61264 0 0 0
288 23.56645 -14.12511 39.26886 0 0 0
289 22.82593 -13.62927 39.72247 0 0 0
290 22.08540 -13.77419 40.37869 0 0 0
291 21.34487 -13.27835 40.83230 0 0 0
292 20.60434 -13.42327 41.48851 0 0 0
293 19.86382 -12.92743 41.94213 0 0 0
ITEM: TIMESTEP
1000
ITEM: NUMBER OF ATOMS
293
ITEM: BOX BOUNDS pp pp pp
-1.0000000000000000e+03 1.0000000000000000e+03
-1.0000000000000000e+03 1.0000000000000000e+03
-1.0000000000000000e+03 1.0000000000000000e+03
ITEM: ATOMS id x y z ix iy iz
1 -4.46842 0.21282 3.60513 0 0 0
2 -3.69543 -0.07278 4.18047 0 0 0
3 -2.82717 0.11866 4.47594 0 0 0
4 -1.92672 0.35894 5.05626 0 0 0
5 -1.09577 0.73535 5.44632 0 0 0
6 -1.69787 0.57300 6.21776 0 0 0
7 -2.10384 -0.01947 7.00731 0 0 0
8 -1.15750 0.21196 7.19162 0 0 0
9 -0.77359 0.35422 8.10618 0 0 0
10 -0.30664 0.39055 9.03270 0 0 0
11 -0.00266 -0.12475 9.79571 0 0 0
12 0.55295 -0.59080 10.45602 0 0 0
13 1.01223 -0.28068 11.41369 0 0 0
14 0.51350 0.41120 11.91594 0 0 0
15 0.64989 0.09537 12.85409 0 0 0
16 0.43471 0.57890 13.61737 0 0 0
17 0.11544 -0.33454 13.74215 0 0 0
18 1.06043 -0.61315 13.56313 0 0 0
19 0.86721 -1.59111 13.66013 0 0 0
20 0.92396 -2.33727 14.26559 0 0 0
21 0.19879 -2.43436 14.96761 0 0 0
22 0.22190 -3.01931 15.82676 0 0 0
23 0.57055 -2.18984 16.04962 0 0 0
24 1.46858 -2.08882 15.60206 0 0 0
25 2.24966 -2.70854 15.38493 0 0 0
26 2.92898 -3.31744 15.68678 0 0 0
27 3.31367 -4.25589 15.68494 0 0 0
28 -0.27960 1.05043 11.91901 0 0 0
29 -0.93745 0.66150 12.59846 0 0 0
30 -1.48456 1.47010 12.74470 0 0 0
31 -2.19702 1.92921 12.28436 0 0 0
32 -2.52950 1.87496 13.16777 0 0 0
33 -3.30394 1.26905 13.32348 0 0 0
34 -4.17966 0.72910 13.43202 0 0 0
35 -5.13233 0.78379 13.72712 0 0 0
36 -6.03036 0.71531 14.06075 0 0 0
37 -6.79009 1.03606 14.51020 0 0 0
38 -7.59096 1.21808 14.06224 0 0 0
39 -8.54174 0.83446 14.06463 0 0 0
40 -9.04280 0.91247 14.91587 0 0 0
41 0.79121 1.37800 11.97215 0 0 0
42 1.69658 1.72747 11.90073 0 0 0
43 2.02081 2.53634 12.44700 0 0 0
44 2.17957 3.43198 12.16372 0 0 0
45 2.95675 3.79237 12.62001 0 0 0
46 3.72787 4.32894 12.52718 0 0 0
47 4.46673 4.85398 12.35986 0 0 0
48 5.27119 4.80589 11.81684 0 0 0
49 5.96382 5.33994 11.41547 0 0 0
50 6.59361 6.00964 11.69839 0 0 0
51 7.33338 6.68143 11.92824 0 0 0
52 8.10279 7.18413 12.19270 0 0 0
53 8.87092 7.63347 11.77285 0 0 0
54 9.66823 8.20868 11.79115 0 0 0
55 8.99505 8.83817 11.69625 0 0 0
56 8.02896 9.04417 11.67101 0 0 0
57 7.41874 9.58964 12.21429 0 0 0
58 7.17744 10.13955 13.02642 0 0 0
59 7.02951 10.98404 12.60744 0 0 0
60 7.01899 11.99039 12.49339 0 0 0
61 6.43227 12.09075 13.31150 0 0 0
62 5.64540 11.69338 13.78365 0 0 0
63 5.26231 12.11485 14.58086 0 0 0
64 5.09117 12.37487 15.51128 0 0 0
65 5.43329 11.90773 16.38794 0 0 0
66 6.00458 12.66071 16.42211 0 0 0
67 6.64068 13.39804 16.64768 0 0 0
68 10.34600 8.43688 11.09307 0 0 0
69 10.74767 8.40742 10.23567 0 0 0
70 10.66185 8.95314 9.36193 0 0 0
71 11.33045 9.31755 8.73373 0 0 0
72 11.62830 10.13180 8.28448 0 0 0
73 11.02422 10.72534 7.82797 0 0 0
74 11.61325 10.31560 7.19612 0 0 0
75 11.78856 11.27367 7.32716 0 0 0
76 12.55658 11.34406 6.81731 0 0 0
77 12.97073 11.67642 5.98484 0 0 0
78 13.81589 11.62004 5.45665 0 0 0
79 14.37797 12.39310 5.66665 0 0 0
80 14.85256 11.85246 5.01996 0 0 0
81 10.17993 7.55812 12.34726 0 0 0
82 11.11742 7.64365 12.20087 0 0 0
83 11.06529 7.89588 13.19729 0 0 0
84 11.72804 7.23990 13.41105 0 0 0
85 12.66566 6.96592 13.47692 0 0 0
86 13.45726 6.88201 14.00403 0 0 0
87 14.26154 6.64383 14.53422 0 0 0
88 14.61386 6.22231 15.37850 0 0 0
89 15.29955 5.50651 15.33175 0 0 0
90 16.29537 5.69611 15.35299 0 0 0
91 17.03858 5.13790 14.93934 0 0 0
92 17.66441 4.98241 15.66877 0 0 0
93 18.49665 5.35489 15.99772 0 0 0
94 18.99009 4.84977 16.63565 0 0 0
95 18.82629 4.00719 16.16288 0 0 0
96 18.41512 3.42238 15.57144 0 0 0
97 18.30757 2.67424 14.96586 0 0 0
98 18.46710 2.28219 14.10061 0 0 0
99 18.56104 1.40648 13.67858 0 0 0
100 19.41218 1.59253 13.21640 0 0 0
101 20.33916 1.53091 12.91827 0 0 0
102 20.65975 2.23112 12.35290 0 0 0
103 21.34823 1.49325 12.12712 0 0 0
104 21.96458 1.24535 11.43686 0 0 0
105 22.75083 1.54028 10.88792 0 0 0
106 23.68472 1.53779 10.59914 0 0 0
107 24.53178 2.03270 10.66343 0 0 0
108 18.68771 4.53465 17.49817 0 0 0
109 19.16707 3.71045 17.53275 0 0 0
110 19.69294 2.91330 17.74491 0 0 0
111 19.14889 2.54371 17.00351 0 0 0
112 18.38820 1.86762 16.91648 0 0 0
113 17.52118 1.58641 17.36027 0 0 0
114 17.48469 0.78322 16.82608 0 0 0
115 17.11947 -0.01919 17.19559 0 0 0
116 16.46533 -0.74407 17.36698 0 0 0
117 16.89074 -1.52691 17.84702 0 0 0
118 16.75784 -1.96695 18.74901 0 0 0
119 17.25313 -1.92374 19.59608 0 0 0
120 18.22080 -2.07271 19.37930 0 0 0
121 19.71776 4.87081 17.22136 0 0 0
122 19.93155 5.21243 18.15273 0 0 0
123 20.85744 5.18900 18.54509 0 0 0
124 21.83166 5.01562 18.76866 0 0 0
125 22.48295 5.50335 19.19322 0 0 0
126 23.17638 5.43516 19.92070 0 0 0
127 23.97876 5.78812 20.31895 0 0 0
128 24.38828 6.64089 20.79583 0 0 0
129 24.72718 7.57396 20.92649 0 0 0
130 25.23658 8.08528 21.59406 0 0 0
131 26.06519 7.58550 21.79667 0 0 0
132 26.67638 7.47529 22.60804 0 0 0
133 27.35153 7.89077 23.38758 0 0 0
134 27.94351 8.44433 23.95699 0 0 0
135 27.79181 9.35159 24.24883 0 0 0
136 26.87701 9.56650 24.12083 0 0 0
137 26.43126 10.55588 24.12136 0 0 0
138 26.09744 11.01386 24.94492 0 0 0
139 25.45757 11.05927 25.63088 0 0 0
140 24.69978 10.31755 25.73110 0 0 0
141 23.86084 10.38007 26.14350 0 0 0
142 23.27705 10.22752 26.88469 0 0 0
143 24.22416 10.34286 27.06442 0 0 0
144 24.26395 10.83944 27.90983 0 0 0
145 23.68587 10.71726 28.65051 0 0 0
146 23.14347 10.75236 29.53595 0 0 0
147 22.50860 10.87013 30.28111 0 0 0
148 28.75381 8.99575 24.00923 0 0 0
149 29.25214 9.78380 23.82242 0 0 0
150 30.05052 10.01585 23.36963 0 0 0
151 29.97227 10.51554 24.25737 0 0 0
152 30.41092 11.36402 24.31988 0 0 0
153 30.97373 12.18121 24.24060 0 0 0
154 31.41052 12.42914 23.42443 0 0 0
155 31.68746 13.03021 22.60848 0 0 0
156 32.06236 13.78887 22.08363 0 0 0
157 32.49613 14.14189 22.80765 0 0 0
158 32.14289 14.99138 23.10025 0 0 0
159 32.87743 15.57301 22.68479 0 0 0
160 33.42826 15.98253 21.95266 0 0 0
161 28.52192 7.69901 23.85409 0 0 0
162 28.92435 6.79510 24.06708 0 0 0
163 28.97406 5.94551 24.44114 0 0 0
164 29.92949 5.57085 24.62024 0 0 0
165 30.44027 5.06248 25.28282 0 0 0
166 31.21572 4.51471 24.85693 0 0 0
167 32.13059 4.75086 25.03037 0 0 0
168 33.04206 4.61621 24.75279 0 0 0
169 33.93206 4.30438 24.50447 0 0 0
170 34.70931 3.73457 24.38222 0 0 0
171 35.38912 3.04669 24.59114 0 0 0
172 35.59887 2.22494 25.10033 0 0 0
173 35.74324 1.68326 25.95703 0 0 0
174 35.76803 0.71133 26.18858 0 0 0
175 36.65031 0.86909 25.81376 0 0 0
176 37.38766 0.80714 25.20886 0 0 0
177 37.65529 1.18331 24.35648 0 0 0
178 38.57621 1.27641 24.73459 0 0 0
179 39.33013 0.85689 25.08583 0 0 0
180 40.21030 0.59771 24.78502 0 0 0
181 40.38573 1.42143 25.29822 0 0 0
182 41.07310 1.84999 24.65757 0 0 0
183 41.85722 2.17351 23.91988 0 0 0
184 41.64297 2.46406 22.94100 0 0 0
185 41.84193 3.39146 22.76357 0 0 0
186 42.06089 3.35568 21.69947 0 0 0
187 42.88865 3.81881 21.44295 0 0 0
188 34.89056 0.36097 26.12319 0 0 0
189 34.51638 0.60264 25.22023 0 0 0
190 34.73703 1.55786 24.84234 0 0 0
191 33.79076 1.86499 24.68966 0 0 0
192 33.74343 1.67034 23.72571 0 0 0
193 33.88674 1.13212 22.91550 0 0 0
194 33.52879 0.98973 21.92700 0 0 0
195 33.44417 0.01931 21.54065 0 0 0
196 33.16097 -0.68790 20.92696 0 0 0
197 33.24092 -1.45696 20.35785 0 0 0
198 33.74692 -1.55181 19.48286 0 0 0
199 34.59239 -1.49783 19.00821 0 0 0
200 34.69341 -0.59787 19.40159 0 0 0
201 36.39070 0.05033 26.51805 0 0 0
202 37.08352 -0.62031 26.42245 0 0 0
203 37.13811 -0.33471 27.39633 0 0 0
204 36.95381 -0.91713 28.08773 0 0 0
205 36.73299 -1.21404 28.95351 0 0 0
206 37.40837 -2.04711 29.07848 0 0 0
207 38.16660 -2.61617 29.37487 0 0 0
208 38.19586 -3.53199 29.75810 0 0 0
209 38.83388 -3.98994 30.34139 0 0 0
210 38.89063 -4.86665 30.86406 0 0 0
211 38.69993 -5.77070 31.24648 0 0 0
212 38.71330 -6.66491 31.57111 0 0 0
213 38.67162 -7.60022 31.97191 0 0 0
214 38.92368 -8.42445 32.49740 0 0 0
215 39.11940 -7.80264 33.14875 0 0 0
216 39.73757 -7.78191 33.88189 0 0 0
217 40.37740 -7.00552 34.08828 0 0 0
218 40.30480 -6.01707 34.18270 0 0 0
219 40.88741 -5.81518 34.89566 0 0 0
220 41.77670 -5.72159 35.25963 0 0 0
221 42.47068 -5.12551 35.66139 0 0 0
222 42.38969 -5.19409 36.62861 0 0 0
223 43.30038 -4.76757 36.77489 0 0 0
224 44.27976 -4.71670 36.56126 0 0 0
225 44.57876 -3.96183 37.09510 0 0 0
226 44.01614 -3.29689 37.57724 0 0 0
227 43.74196 -2.56569 38.20527 0 0 0
228 39.38020 -9.30366 32.70883 0 0 0
229 40.28724 -9.67545 32.73934 0 0 0
230 41.25331 -9.60510 32.74270 0 0 0
231 41.82724 -10.31115 32.41646 0 0 0
232 41.85036 -11.09157 31.85562 0 0 0
233 42.72890 -10.94325 31.47014 0 0 0
234 42.90668 -10.88309 30.52712 0 0 0
235 43.87439 -11.06549 30.33732 0 0 0
236 44.76234 -11.36997 30.63745 0 0 0
237 44.78960 -11.16276 31.64965 0 0 0
238 45.50352 -10.70612 31.26621 0 0 0
239 46.30508 -10.19720 31.31451 0 0 0
240 46.93291 -10.35642 32.05377 0 0 0
241 38.21868 -9.11657 32.01005 0 0 0
242 37.64418 -9.93731 32.35000 0 0 0
243 37.30648 -10.41593 33.25457 0 0 0
244 36.75227 -11.17260 33.47394 0 0 0
245 35.95959 -11.41662 33.90580 0 0 0
246 35.01283 -11.62351 34.23085 0 0 0
247 34.62525 -12.60064 33.97809 0 0 0
248 33.76864 -12.94919 34.51127 0 0 0
249 32.94804 -13.32440 34.23028 0 0 0
250 32.24187 -13.70041 34.82305 0 0 0
251 32.12198 -13.92779 35.75527 0 0 0
252 31.19729 -14.24992 35.39203 0 0 0
253 30.25996 -14.28902 35.53992 0 0 0
254 29.80506 -14.55222 34.71662 0 0 0
255 30.12063 -15.39021 35.17804 0 0 0
256 30.39681 -16.16674 35.67525 0 0 0
257 30.19420 -16.76780 36.51637 0 0 0
258 30.55355 -17.71048 36.40270 0 0 0
259 29.61349 -17.90391 36.29176 0 0 0
260 29.84573 -18.85621 36.35690 0 0 0
261 30.13808 -18.64885 37.22487 0 0 0
262 30.01259 -19.60442 37.42874 0 0 0
263 30.79544 -19.86078 38.01209 0 0 0
264 30.93250 -20.67426 37.51814 0 0 0
265 31.05027 -21.39224 36.86933 0 0 0
266 31.52502 -22.15145 37.05842 0 0 0
267 31.65854 -21.48783 37.78811 0 0 0
268 29.66642 -14.20283 33.80417 0 0 0
269 28.99047 -14.53717 33.24248 0 0 0
270 28.57034 -13.74658 32.76589 0 0 0
271 28.08518 -12.98758 32.24679 0 0 0
272 27.30774 -12.62686 31.80006 0 0 0
273 26.82832 -13.00621 31.04255 0 0 0
274 26.44277 -13.41311 30.31685 0 0 0
275 26.66542 -14.28624 29.85656 0 0 0
276 26.94850 -13.91115 28.99974 0 0 0
277 26.35487 -13.80284 28.18984 0 0 0
278 25.69771 -13.55540 27.49992 0 0 0
279 25.69590 -13.32105 26.55431 0 0 0
280 25.12735 -12.65498 25.99674 0 0 0
281 28.83592 -14.25024 34.60264 0 0 0
282 27.80261 -14.42489 34.67602 0 0 0
283 26.81647 -14.62365 34.45012 0 0 0
284 26.22417 -14.95912 35.08531 0 0 0
285 25.71644 -14.63604 35.83841 0 0 0
286 25.44606 -14.36167 36.80333 0 0 0
287 25.79062 -13.50600 36.75261 0 0 0
288 25.10931 -13.58027 37.48148 0 0 0
289 24.26171 -14.03535 37.60656 0 0 0
290 23.84359 -14.75644 38.07917 0 0 0
291 23.13020 -14.30143 37.52154 0 0 0
292 22.15953 -14.46460 37.22456 0 0 0
293 21.88108 -13.72280 36.69618 0 0 0
ITEM: TIMESTEP
2000
ITEM: NUMBER OF ATOMS
293
ITEM: BOX BOUNDS pp pp pp
-1.0000000000000000e+03 1.0000000000000000e+03
-1.0000000000000000e+03 1.0000000000000000e+03
-1.0000000000000000e+03 1.0000000000000000e+03
ITEM: ATOMS id x y z ix iy iz
1 -3.14836 -0.23197 5.88868 0 0 0
2 -3.25129 0.60252 6.39991 0 0 0
3 -3.40771 0.60385 7.34987 0 0 0
4 -3.53140 0.75002 8.33487 0 0 0
5 -2.62707 0.68909 8.72987 0 0 0
6 -1.98125 1.37408 8.44111 0 0 0
7 -1.17816 1.39154 8.95679 0 0 0
8 -0.20127 1.24008 8.87956 0 0 0
9 0.31157 0.38549 8.91541 0 0 0
10 1.31472 0.12970 9.03258 0 0 0
11 1.75350 0.72005 9.66570 0 0 0
12 2.02988 1.30473 10.37779 0 0 0
13 2.12801 1.69188 11.23484 0 0 0
14 1.82076 2.44286 11.92481 0 0 0
15 1.35946 1.58083 12.04194 0 0 0
16 0.71865 1.22421 12.83442 0 0 0
17 0.59038 0.37247 13.16435 0 0 0
18 -0.29724 0.34901 13.44971 0 0 0
19 0.09114 -0.38285 13.98364 0 0 0
20 0.95949 -0.70273 13.53815 0 0 0
21 1.77416 -1.07096 13.19836 0 0 0
22 2.26470 -1.67530 12.49132 0 0 0
23 2.89764 -2.38033 12.82220 0 0 0
24 3.87853 -2.22733 12.75452 0 0 0
25 4.01846 -1.21789 12.40745 0 0 0
26 3.35438 -1.72030 11.94521 0 0 0
27 3.30586 -1.47265 11.01785 0 0 0
28 0.97294 2.65770 12.39446 0 0 0
29 -0.07618 2.64704 12.59491 0 0 0
30 -0.83750 2.15071 12.86044 0 0 0
31 -1.38553 2.03954 13.68535 0 0 0
32 -2.40843 2.14506 13.65009 0 0 0
33 -3.30061 2.32782 13.67497 0 0 0
34 -2.92207 3.17917 14.20508 0 0 0
35 -2.42299 3.74847 14.74121 0 0 0
36 -3.09277 4.07038 15.34355 0 0 0
37 -4.01001 4.06067 15.00197 0 0 0
38 -4.37331 3.38653 15.66965 0 0 0
39 -4.12907 2.44337 15.68485 0 0 0
40 -4.27896 1.77720 15.01317 0 0 0
41 2.77345 2.69275 11.64905 0 0 0
42 3.60135 3.04602 11.46541 0 0 0
43 4.15405 3.67958 12.05690 0 0 0
44 4.53632 4.51534 12.47061 0 0 0
45 5.13718 5.23407 12.26085 0 0 0
46 5.75116 5.91506 11.83929 0 0 0
47 6.65779 6.35796 11.70018 0 0 0
48 7.57784 6.11130 11.71956 0 0 0
49 8.23738 5.64500 11.15477 0 0 0
50 8.99693 5.04121 11.48035 0 0 0
51 9.91632 5.36508 11.35418 0 0 0
52 10.68994 6.03547 11.31924 0 0 0
53 10.80864 6.92250 11.64312 0 0 0
54 10.41698 7.84391 11.53097 0 0 0
55 9.41869 8.09425 11.52099 0 0 0
56 8.83133 8.87594 11.33839 0 0 0
57 7.87305 8.91341 11.55326 0 0 0
58 7.37329 9.13439 12.35300 0 0 0
59 6.85737 9.67686 13.09932 0 0 0
60 7.30097 10.12451 13.90107 0 0 0
61 7.97518 10.82374 14.29487 0 0 0
62 7.83783 11.43731 15.01636 0 0 0
63 7.70829 12.10890 15.70941 0 0 0
64 6.88887 12.19357 16.28964 0 0 0
65 6.62186 12.89191 16.94034 0 0 0
66 6.68753 13.78654 17.17628 0 0 0
67 7.33792 14.49476 17.50510 0 0 0
68 10.28940 8.66154 11.00740 0 0 0
69 9.69108 9.25618 10.39712 0 0 0
70 9.41391 9.78042 11.08764 0 0 0
71 9.44378 10.82083 11.14751 0 0 0
72 10.16293 11.22449 10.61789 0 0 0
73 10.64363 11.57532 9.81139 0 0 0
74 11.35484 10.93673 9.64232 0 0 0
75 11.33472 11.37889 8.73657 0 0 0
76 11.44210 12.26954 8.40313 0 0 0
77 11.28469 13.14341 8.04318 0 0 0
78 11.74609 13.88059 7.53619 0 0 0
79 12.05673 14.41486 8.30549 0 0 0
80 12.78855 13.67566 8.20786 0 0 0
81 11.40872 7.78120 11.97696 0 0 0
82 12.39384 7.55105 12.21747 0 0 0
83 13.10083 8.12106 12.65501 0 0 0
84 13.96909 7.68248 12.66105 0 0 0
85 14.49689 7.18201 13.27338 0 0 0
86 15.49685 7.38617 13.27985 0 0 0
87 16.21822 6.79561 13.61451 0 0 0
88 16.96713 6.11206 13.76232 0 0 0
89 17.84138 5.80623 13.36762 0 0 0
90 18.59278 6.18003 13.76721 0 0 0
91 19.42728 6.28208 14.30800 0 0 0
92 19.37476 6.28660 15.35191 0 0 0
93 19.92159 6.38111 16.16111 0 0 0
94 20.39338 5.79302 16.80666 0 0 0
95 20.38799 5.45251 15.90884 0 0 0
96 19.67718 4.75092 15.66811 0 0 0
97 18.76870 4.50570 15.45844 0 0 0
98 18.67523 3.68270 15.05030 0 0 0
99 18.81664 2.69778 14.87187 0 0 0
100 18.44496 2.08346 14.28340 0 0 0
101 18.40200 1.59057 13.45048 0 0 0
102 18.26350 0.59236 12.95822 0 0 0
103 17.74284 0.91585 12.20884 0 0 0
104 17.91513 1.31924 11.35873 0 0 0
105 17.97341 0.34117 11.25239 0 0 0
106 17.23816 -0.10707 11.71517 0 0 0
107 17.72620 -1.00214 11.59514 0 0 0
108 20.58609 5.10261 17.51549 0 0 0
109 20.53179 4.16835 17.67662 0 0 0
110 20.55462 3.23984 17.50171 0 0 0
111 20.32695 2.29363 17.32486 0 0 0
112 19.35904 2.29472 17.47676 0 0 0
113 19.31577 1.70912 18.21366 0 0 0
114 19.76671 1.07593 18.81631 0 0 0
115 19.48615 0.21041 19.09475 0 0 0
116 19.15759 0.47337 18.16370 0 0 0
117 19.57213 0.19646 17.26521 0 0 0
118 19.82250 -0.55588 16.77088 0 0 0
119 19.90433 -1.38580 17.39838 0 0 0
120 20.80503 -1.12014 17.65813 0 0 0
121 21.14034 6.41713 16.61247 0 0 0
122 21.56237 7.31162 16.87910 0 0 0
123 22.31312 7.57391 17.53484 0 0 0
124 23.04948 7.22309 18.08800 0 0 0
125 23.87224 7.35113 18.58681 0 0 0
126 24.46679 7.02110 19.25396 0 0 0
127 25.43726 6.84363 19.27878 0 0 0
128 26.36571 7.07861 19.42852 0 0 0
129 27.34607 6.86579 19.60518 0 0 0
130 28.01712 7.21640 20.21600 0 0 0
131 28.65535 7.31964 20.95059 0 0 0
132 28.91414 7.77848 21.86208 0 0 0
133 29.52378 8.05040 22.58080 0 0 0
134 30.10496 8.88753 23.06459 0 0 0
135 29.19719 9.31089 23.11486 0 0 0
136 29.07359 9.99360 23.82889 0 0 0
137 28.39890 10.43682 24.39399 0 0 0
138 27.51175 10.72039 24.71674 0 0 0
139 27.40891 10.68548 25.61347 0 0 0
140 26.71607 10.13348 26.16959 0 0 0
141 26.03215 9.84557 26.97326 0 0 0
142 26.49431 10.39395 27.75442 0 0 0
143 26.98745 9.68463 28.16256 0 0 0
144 26.86441 8.70443 28.21458 0 0 0
145 26.34718 8.88373 27.42855 0 0 0
146 26.06521 8.84152 26.41538 0 0 0
147 25.58674 9.54536 25.80995 0 0 0
148 30.29114 9.78525 22.80184 0 0 0
149 31.16710 10.17339 22.72933 0 0 0
150 32.23210 9.84833 22.54793 0 0 0
151 32.62098 9.00818 22.93867 0 0 0
152 33.16316 9.64718 23.30537 0 0 0
153 33.50525 10.52467 23.24033 0 0 0
154 33.78992 11.34761 23.85998 0 0 0
155 33.26423 12.11402 24.16736 0 0 0
156 33.15093 13.02966 24.40297 0 0 0
157 33.50296 13.62702 25.16125 0 0 0
158 33.29655 14.49301 24.74960 0 0 0
159 33.29543 15.13281 24.07166 0 0 0
160 32.41529 15.49676 23.91944 0 0 0
161 30.46876 8.01080 23.32543 0 0 0
162 30.75100 7.19739 23.80502 0 0 0
163 30.22362 6.55300 24.25748 0 0 0
164 29.84771 5.60949 24.66475 0 0 0
165 29.68968 4.86147 24.15634 0 0 0
166 30.66702 4.75926 24.09254 0 0 0
167 31.65906 4.75248 24.26589 0 0 0
168 32.16168 4.56872 25.02126 0 0 0
169 32.80385 4.33626 25.73706 0 0 0
170 33.57419 3.80224 26.13034 0 0 0
171 34.13919 3.02472 26.15258 0 0 0
172 34.61472 2.14651 26.10037 0 0 0
173 35.11455 1.20087 26.16896 0 0 0
174 35.76923 0.45352 26.15554 0 0 0
175 36.65215 0.11759 25.88340 0 0 0
176 37.54685 0.36409 25.57084 0 0 0
177 38.11741 -0.39595 25.53751 0 0 0
178 38.96151 -0.48715 25.11517 0 0 0
179 39.25686 -1.29982 24.82088 0 0 0
180 39.84021 -0.65461 24.34152 0 0 0
181 40.53087 -0.03686 24.00272 0 0 0
182 41.07937 -0.22701 23.15366 0 0 0
183 40.40994 0.05189 22.49762 0 0 0
184 40.27273 0.94475 22.81124 0 0 0
185 40.01336 1.84559 22.56458 0 0 0
186 40.46218 2.71347 22.30110 0 0 0
187 41.19730 3.01587 21.67541 0 0 0
188 34.91786 0.30208 25.70131 0 0 0
189 34.14172 0.14723 25.07843 0 0 0
190 33.40839 -0.22366 24.48478 0 0 0
191 33.92391 -1.01825 24.64826 0 0 0
192 34.79081 -1.54071 24.72822 0 0 0
193 35.34632 -0.82952 24.45132 0 0 0
194 36.05152 -0.44956 23.94585 0 0 0
195 35.33229 -0.42496 23.21672 0 0 0
196 34.75827 0.04044 22.57758 0 0 0
197 34.13676 0.61496 22.03494 0 0 0
198 33.96768 1.49571 21.81825 0 0 0
199 33.47771 1.89159 22.75960 0 0 0
200 33.18431 2.59852 23.35764 0 0 0
201 35.28655 -0.47171 26.35045 0 0 0
202 35.51304 -1.01658 27.22212 0 0 0
203 35.64263 -1.86442 27.65128 0 0 0
204 35.57741 -2.81976 27.98101 0 0 0
205 35.45564 -2.37863 28.87496 0 0 0
206 36.19362 -2.60399 29.35211 0 0 0
207 36.01113 -3.31739 29.98765 0 0 0
208 36.43171 -3.97055 30.54141 0 0 0
209 36.69898 -4.67995 31.20230 0 0 0
210 37.31875 -5.41498 31.29148 0 0 0
211 37.93931 -5.63966 32.10329 0 0 0
212 37.90414 -6.61218 32.29313 0 0 0
213 37.93224 -7.57462 32.22863 0 0 0
214 38.44154 -8.45254 32.34114 0 0 0
215 38.90729 -7.84109 32.89411 0 0 0
216 39.61824 -7.96984 33.56091 0 0 0
217 40.05635 -8.34363 34.32896 0 0 0
218 40.95654 -8.09747 34.70826 0 0 0
219 41.19539 -7.49917 35.43935 0 0 0
220 41.87737 -6.78496 35.25758 0 0 0
221 42.35575 -6.21483 35.89700 0 0 0
222 43.22334 -5.89301 35.48544 0 0 0
223 43.39507 -5.04414 35.03881 0 0 0
224 43.16304 -4.46396 34.29132 0 0 0
225 43.64047 -3.83733 34.87090 0 0 0
226 43.89355 -3.11981 35.57399 0 0 0