ITEM: TIMESTEP
0
ITEM: NUMBER OF ATOMS
400
ITEM: BOX BOUNDS pp pp pp
-1.0000000000000000e+03 1.0000000000000000e+03
-1.0000000000000000e+03 1.0000000000000000e+03
-1.0000000000000000e+03 1.0000000000000000e+03
ITEM: ATOMS id x y z ix iy iz
1 0.00000 0.00000 0.00000 0 0 0
2 0.00000 0.00000 1.00000 0 0 0
3 0.00000 -0.50000 1.86603 0 0 0
4 0.00000 0.00000 2.73205 0 0 0
5 0.00000 -0.50000 3.59808 0 0 0
6 0.00000 0.00000 4.46410 0 0 0
7 0.00000 -0.50000 5.33013 0 0 0
8 0.00000 0.00000 6.19615 0 0 0
9 0.00000 -0.50000 7.06218 0 0 0
10 0.00000 0.00000 7.92820 0 0 0
11 0.00000 -0.50000 8.79423 0 0 0
12 0.00000 0.00000 9.66025 0 0 0
13 0.00000 -0.50000 10.52628 0 0 0
14 0.00000 0.00000 11.39230 0 0 0
15 0.00000 -0.50000 12.25833 0 0 0
16 0.00000 0.00000 13.12436 0 0 0
17 0.00000 -0.50000 13.99038 0 0 0
18 0.00000 0.00000 14.85641 0 0 0
19 0.00000 -0.50000 15.72243 0 0 0
20 0.00000 0.00000 16.58846 0 0 0
21 0.00000 -0.50000 17.45448 0 0 0
22 0.00000 0.00000 18.32051 0 0 0
23 0.00000 -0.50000 19.18653 0 0 0
24 0.00000 0.00000 20.05256 0 0 0
25 0.00000 -0.50000 20.91858 0 0 0
26 0.00000 0.00000 21.78461 0 0 0
27 0.00000 -0.50000 22.65064 0 0 0
28 0.00000 0.00000 23.51666 0 0 0
29 0.00000 -0.50000 24.38269 0 0 0
30 0.00000 0.00000 25.24871 0 0 0
31 0.00000 -0.50000 26.11474 0 0 0
32 0.00000 0.00000 26.98076 0 0 0
33 0.00000 -0.50000 27.84679 0 0 0
34 0.00000 0.00000 28.71281 0 0 0
35 0.00000 -0.50000 29.57884 0 0 0
36 0.00000 0.00000 30.44486 0 0 0
37 0.00000 -0.50000 31.31089 0 0 0
38 0.00000 0.00000 32.17691 0 0 0
39 0.00000 -0.50000 33.04294 0 0 0
40 0.00000 0.00000 33.90897 0 0 0
41 0.00000 -0.50000 34.77499 0 0 0
42 0.00000 0.00000 35.64102 0 0 0
43 0.00000 -0.50000 36.50704 0 0 0
44 0.00000 0.00000 37.37307 0 0 0
45 0.00000 -0.50000 38.23909 0 0 0
46 0.00000 0.00000 39.10512 0 0 0
47 0.00000 -0.50000 39.97114 0 0 0
48 0.00000 0.00000 40.83717 0 0 0
49 0.00000 -0.50000 41.70319 0 0 0
50 0.00000 0.00000 42.56922 0 0 0
51 0.00000 -0.50000 43.43524 0 0 0
52 0.00000 0.00000 44.30127 0 0 0
53 0.00000 -0.50000 45.16730 0 0 0
54 0.00000 0.00000 46.03332 0 0 0
55 0.00000 -0.50000 46.89935 0 0 0
56 0.00000 0.00000 47.76537 0 0 0
57 0.00000 -0.50000 48.63140 0 0 0
58 0.00000 0.00000 49.49742 0 0 0
59 0.00000 -0.50000 50.36345 0 0 0
60 0.00000 0.00000 51.22947 0 0 0
61 0.00000 -0.50000 52.09550 0 0 0
62 0.00000 0.00000 52.96152 0 0 0
63 0.00000 -0.50000 53.82755 0 0 0
64 0.00000 0.00000 54.69358 0 0 0
65 0.00000 -0.50000 55.55960 0 0 0
66 0.00000 0.00000 56.42563 0 0 0
67 0.00000 -0.50000 57.29165 0 0 0
68 0.00000 0.00000 58.15768 0 0 0
69 0.00000 -0.50000 59.02370 0 0 0
70 0.00000 0.00000 59.88973 0 0 0
71 0.00000 -0.50000 60.75575 0 0 0
72 0.00000 0.00000 61.62178 0 0 0
73 0.00000 -0.50000 62.48780 0 0 0
74 0.00000 0.00000 63.35383 0 0 0
75 0.00000 -0.50000 64.21985 0 0 0
76 0.00000 0.00000 65.08588 0 0 0
77 0.00000 -0.50000 65.95191 0 0 0
78 0.00000 0.00000 66.81793 0 0 0
79 0.00000 -0.50000 67.68396 0 0 0
80 0.00000 0.00000 68.54998 0 0 0
81 0.00000 -0.50000 69.41601 0 0 0
82 0.00000 0.00000 70.28203 0 0 0
83 0.00000 -0.50000 71.14806 0 0 0
84 0.00000 0.00000 72.01408 0 0 0
85 0.00000 -0.50000 72.88011 0 0 0
86 0.00000 0.00000 73.74613 0 0 0
87 0.00000 -0.50000 74.61216 0 0 0
88 0.00000 0.00000 75.47818 0 0 0
89 0.00000 -0.50000 76.34421 0 0 0
90 0.00000 0.00000 77.21024 0 0 0
91 0.00000 -0.50000 78.07626 0 0 0
92 0.00000 0.00000 78.94229 0 0 0
93 0.00000 -0.50000 79.80831 0 0 0
94 0.00000 0.00000 80.67434 0 0 0
95 0.00000 -0.50000 81.54036 0 0 0
96 0.00000 0.00000 82.40639 0 0 0
97 0.00000 -0.50000 83.27241 0 0 0
98 0.00000 0.00000 84.13844 0 0 0
99 0.00000 -0.50000 85.00446 0 0 0
100 0.00000 0.00000 85.87049 0 0 0
101 0.00000 -0.50000 86.73651 0 0 0
102 0.00000 0.00000 87.60254 0 0 0
103 0.00000 -0.50000 88.46857 0 0 0
104 0.00000 0.00000 89.33459 0 0 0
105 0.00000 -0.50000 90.20062 0 0 0
106 0.00000 0.00000 91.06664 0 0 0
107 0.00000 -0.50000 91.93267 0 0 0
108 0.00000 0.00000 92.79869 0 0 0
109 0.00000 -0.50000 93.66472 0 0 0
110 0.00000 0.00000 94.53074 0 0 0
111 0.00000 -0.50000 95.39677 0 0 0
112 0.00000 0.00000 96.26279 0 0 0
113 0.00000 -0.50000 97.12882 0 0 0
114 0.00000 0.00000 97.99485 0 0 0
115 0.00000 -0.50000 98.86087 0 0 0
116 0.00000 0.00000 99.72690 0 0 0
117 0.00000 -0.50000 100.59292 0 0 0
118 0.00000 0.00000 101.45895 0 0 0
119 0.00000 -0.50000 102.32497 0 0 0
120 0.00000 0.00000 103.19100 0 0 0
121 0.00000 -0.50000 104.05702 0 0 0
122 0.00000 0.00000 104.92305 0 0 0
123 0.00000 -0.50000 105.78907 0 0 0
124 0.00000 0.00000 106.65510 0 0 0
125 0.00000 -0.50000 107.52112 0 0 0
126 0.00000 0.00000 108.38715 0 0 0
127 0.00000 -0.50000 109.25318 0 0 0
128 0.00000 0.00000 110.11920 0 0 0
129 0.00000 -0.50000 110.98523 0 0 0
130 0.00000 0.00000 111.85125 0 0 0
131 0.00000 -0.50000 112.71728 0 0 0
132 0.00000 0.00000 113.58330 0 0 0
133 0.00000 -0.50000 114.44933 0 0 0
134 0.00000 0.00000 115.31535 0 0 0
135 0.64541 0.75008 115.45964 0 0 0
136 1.29082 1.32753 115.95964 0 0 0
137 1.93624 2.04926 115.70956 0 0 0
138 2.58165 2.62671 116.20956 0 0 0
139 3.22706 3.34844 115.95948 0 0 0
140 3.87247 3.92589 116.45948 0 0 0
141 4.51789 4.64762 116.20940 0 0 0
142 5.16330 5.22507 116.70940 0 0 0
143 5.80871 5.94680 116.45932 0 0 0
144 6.45412 6.52425 116.95932 0 0 0
145 7.09954 7.24598 116.70923 0 0 0
146 7.74495 7.82343 117.20923 0 0 0
147 8.39036 8.54516 116.95915 0 0 0
148 9.03577 9.12261 117.45915 0 0 0
149 9.68119 9.84434 117.20907 0 0 0
150 10.32660 10.42179 117.70907 0 0 0
151 10.97201 11.14352 117.45899 0 0 0
152 11.61742 11.72097 117.95899 0 0 0
153 12.26284 12.44270 117.70890 0 0 0
154 12.90825 13.02015 118.20890 0 0 0
155 13.55366 13.74188 117.95882 0 0 0
156 14.19907 14.31933 118.45882 0 0 0
157 14.84449 15.04106 118.20874 0 0 0
158 15.48990 15.61851 118.70874 0 0 0
159 16.13531 16.34025 118.45866 0 0 0
160 16.78072 16.91769 118.95866 0 0 0
161 17.42614 17.63943 118.70858 0 0 0
162 18.07155 18.21687 119.20858 0 0 0
163 18.71696 18.93861 118.95849 0 0 0
164 19.36237 19.51605 119.45849 0 0 0
165 20.00779 20.23779 119.20841 0 0 0
166 20.65320 20.81523 119.70841 0 0 0
167 21.29861 21.53697 119.45833 0 0 0
168 21.94402 22.11441 119.95833 0 0 0
169 22.58944 22.83615 119.70825 0 0 0
170 23.23485 23.41359 120.20825 0 0 0
171 23.88026 24.13533 119.95817 0 0 0
172 24.52567 24.71277 120.45817 0 0 0
173 25.17109 25.43451 120.20808 0 0 0
174 25.81650 26.01195 120.70808 0 0 0
175 26.46191 26.73369 120.45800 0 0 0
176 27.10732 27.31113 120.95800 0 0 0
177 27.75274 28.03287 120.70792 0 0 0
178 28.39815 28.61031 121.20792 0 0 0
179 29.04356 29.33205 120.95784 0 0 0
180 29.68897 29.90949 121.45784 0 0 0
181 30.33439 30.63123 121.20776 0 0 0
182 30.97980 31.20867 121.70776 0 0 0
183 31.62521 31.93041 121.45767 0 0 0
184 32.27062 32.50785 121.95767 0 0 0
185 32.91604 33.22959 121.70759 0 0 0
186 33.56145 33.80703 122.20759 0 0 0
187 34.20686 34.52877 121.95751 0 0 0
188 34.85227 35.10621 122.45751 0 0 0
189 35.49768 35.82795 122.20743 0 0 0
190 36.14310 36.40539 122.70743 0 0 0
191 36.78851 37.12713 122.45735 0 0 0
192 37.43392 37.70457 122.95735 0 0 0
193 38.07933 38.42631 122.70726 0 0 0
194 38.72475 39.00375 123.20726 0 0 0
195 39.37016 39.72549 122.95718 0 0 0
196 40.01557 40.30293 123.45718 0 0 0
197 40.66098 41.02467 123.20710 0 0 0
198 41.30640 41.60211 123.70710 0 0 0
199 41.95181 42.32385 123.45702 0 0 0
200 42.59722 42.90130 123.95702 0 0 0
201 43.24263 43.62303 123.70694 0 0 0
202 43.88805 44.20048 124.20694 0 0 0
203 44.53346 44.92221 123.95685 0 0 0
204 45.17887 45.49966 124.45685 0 0 0
205 45.82428 46.22139 124.20677 0 0 0
206 46.46970 46.79884 124.70677 0 0 0
207 47.11511 47.52057 124.45669 0 0 0
208 47.76052 48.09802 124.95669 0 0 0
209 48.40593 48.81975 124.70661 0 0 0
210 49.05135 49.39720 125.20661 0 0 0
211 49.69676 50.11893 124.95652 0 0 0
212 50.34217 50.69638 125.45652 0 0 0
213 50.98758 51.41811 125.20644 0 0 0
214 51.63300 51.99556 125.70644 0 0 0
215 52.27841 52.71729 125.45636 0 0 0
216 52.92382 53.29474 125.95636 0 0 0
217 53.56923 54.01647 125.70628 0 0 0
218 54.21465 54.59392 126.20628 0 0 0
219 54.86006 55.31565 125.95620 0 0 0
220 55.50547 55.89310 126.45620 0 0 0
221 56.15088 56.61483 126.20611 0 0 0
222 56.79630 57.19228 126.70611 0 0 0
223 57.44171 57.91401 126.45603 0 0 0
224 58.08712 58.49146 126.95603 0 0 0
225 58.73253 59.21319 126.70595 0 0 0
226 59.37795 59.79064 127.20595 0 0 0
227 60.02336 60.51237 126.95587 0 0 0
228 60.66877 61.08982 127.45587 0 0 0
229 61.31418 61.81155 127.20579 0 0 0
230 61.95960 62.38900 127.70579 0 0 0
231 62.60501 63.11073 127.45570 0 0 0
232 63.25042 63.68818 127.95570 0 0 0
233 63.89583 64.40991 127.70562 0 0 0
234 64.54125 64.98736 128.20562 0 0 0
235 65.18666 65.70909 127.95554 0 0 0
236 65.83207 66.28654 128.45554 0 0 0
237 66.47748 67.00827 128.20546 0 0 0
238 67.12290 67.58572 128.70546 0 0 0
239 67.76831 68.30746 128.45538 0 0 0
240 68.41372 68.88490 128.95538 0 0 0
241 69.05913 69.60664 128.70529 0 0 0
242 69.70454 70.18408 129.20529 0 0 0
243 70.34996 70.90582 128.95521 0 0 0
244 70.99537 71.48326 129.45521 0 0 0
245 71.64078 72.20500 129.20513 0 0 0
246 72.28619 72.78244 129.70513 0 0 0
247 72.93161 73.50418 129.45505 0 0 0
248 73.57702 74.08162 129.95505 0 0 0
249 74.22243 74.80336 129.70497 0 0 0
250 74.86784 75.38080 130.20497 0 0 0
251 75.51326 76.10254 129.95488 0 0 0
252 76.15867 76.67998 130.45488 0 0 0
253 76.80408 77.40172 130.20480 0 0 0
254 77.44949 77.97916 130.70480 0 0 0
255 78.09491 78.70090 130.45472 0 0 0
256 78.74032 79.27834 130.95472 0 0 0
257 79.38573 80.00008 130.70464 0 0 0
258 80.03114 80.57752 131.20464 0 0 0
259 80.67656 81.29926 130.95456 0 0 0
260 81.32197 81.87670 131.45456 0 0 0
261 81.96738 82.59844 131.20447 0 0 0
262 82.61279 83.17588 131.70447 0 0 0
263 83.25821 83.89762 131.45439 0 0 0
264 83.90362 84.47506 131.95439 0 0 0
265 84.54903 85.19680 131.70431 0 0 0
266 85.19444 85.77424 132.20431 0 0 0
267 85.83986 86.49598 131.95423 0 0 0
268 -0.64541 -0.25008 116.03709 0 0 0
269 -1.29082 -0.82753 116.53709 0 0 0
270 -1.93624 -0.68324 117.28717 0 0 0
271 -2.58165 -1.26068 117.78717 0 0 0
272 -3.22706 -1.11639 118.53725 0 0 0
273 -3.87247 -1.69384 119.03725 0 0 0
274 -4.51789 -1.54955 119.78733 0 0 0
275 -5.16330 -2.12699 120.28733 0 0 0
276 -5.80871 -1.98270 121.03742 0 0 0
277 -6.45412 -2.56015 121.53742 0 0 0
278 -7.09954 -2.41586 122.28750 0 0 0
279 -7.74495 -2.99330 122.78750 0 0 0
280 -8.39036 -2.84901 123.53758 0 0 0
281 -9.03577 -3.42646 124.03758 0 0 0
282 -9.68119 -3.28217 124.78766 0 0 0
283 -10.32660 -3.85961 125.28766 0 0 0
284 -10.97201 -3.71532 126.03775 0 0 0
285 -11.61742 -4.29277 126.53775 0 0 0
286 -12.26284 -4.14848 127.28783 0 0 0
287 -12.90825 -4.72592 127.78783 0 0 0
288 -13.55366 -4.58163 128.53791 0 0 0
289 -14.19907 -5.15908 129.03791 0 0 0
290 -14.84449 -5.01479 129.78799 0 0 0
291 -15.48990 -5.59223 130.28799 0 0 0
292 -16.13531 -5.44794 131.03807 0 0 0
293 -16.78072 -6.02539 131.53807 0 0 0
294 -17.42614 -5.88110 132.28816 0 0 0
295 -18.07155 -6.45854 132.78816 0 0 0
296 -18.71696 -6.31425 133.53824 0 0 0
297 -19.36237 -6.89169 134.03824 0 0 0
298 -20.00779 -6.74740 134.78832 0 0 0
299 -20.65320 -7.32485 135.28832 0 0 0
300 -21.29861 -7.18056 136.03840 0 0 0
301 -21.94402 -7.75800 136.53840 0 0 0
302 -22.58944 -7.61371 137.28848 0 0 0
303 -23.23485 -8.19116 137.78848 0 0 0
304 -23.88026 -8.04687 138.53857 0 0 0
305 -24.52567 -8.62431 139.03857 0 0 0
306 -25.17109 -8.48002 139.78865 0 0 0
307 -25.81650 -9.05747 140.28865 0 0 0
308 -26.46191 -8.91318 141.03873 0 0 0
309 -27.10732 -9.49062 141.53873 0 0 0
310 -27.75274 -9.34633 142.28881 0 0 0
311 -28.39815 -9.92378 142.78881 0 0 0
312 -29.04356 -9.77949 143.53889 0 0 0
313 -29.68897 -10.35693 144.03889 0 0 0
314 -30.33439 -10.21264 144.78898 0 0 0
315 -30.97980 -10.79009 145.28898 0 0 0
316 -31.62521 -10.64580 146.03906 0 0 0
317 -32.27062 -11.22324 146.53906 0 0 0
318 -32.91604 -11.07895 147.28914 0 0 0
319 -33.56145 -11.65640 147.78914 0 0 0
320 -34.20686 -11.51211 148.53922 0 0 0
321 -34.85227 -12.08955 149.03922 0 0 0
322 -35.49768 -11.94526 149.78930 0 0 0
323 -36.14310 -12.52271 150.28930 0 0 0
324 -36.78851 -12.37842 151.03939 0 0 0
325 -37.43392 -12.95586 151.53939 0 0 0
326 -38.07933 -12.81157 152.28947 0 0 0
327 -38.72475 -13.38902 152.78947 0 0 0
328 -39.37016 -13.24473 153.53955 0 0 0
329 -40.01557 -13.82217 154.03955 0 0 0
330 -40.66098 -13.67788 154.78963 0 0 0
331 -41.30640 -14.25533 155.28963 0 0 0
332 -41.95181 -14.11104 156.03971 0 0 0
333 -42.59722 -14.68848 156.53971 0 0 0
334 -43.24263 -14.54419 157.28980 0 0 0
335 -43.88805 -15.12164 157.78980 0 0 0
336 -44.53346 -14.97735 158.53988 0 0 0
337 -45.17887 -15.55479 159.03988 0 0 0
338 -45.82428 -15.41050 159.78996 0 0 0
339 -46.46970 -15.98795 160.28996 0 0 0
340 -47.11511 -15.84366 161.04004 0 0 0
341 -47.76052 -16.42110 161.54004 0 0 0
342 -48.40593 -16.27681 162.29013 0 0 0
343 -49.05135 -16.85426 162.79013 0 0 0
344 -49.69676 -16.70997 163.54021 0 0 0
345 -50.34217 -17.28741 164.04021 0 0 0
346 -50.98758 -17.14312 164.79029 0 0 0
347 -51.63300 -17.72057 165.29029 0 0 0
348 -52.27841 -17.57628 166.04037 0 0 0
349 -52.92382 -18.15372 166.54037 0 0 0
350 -53.56923 -18.00943 167.29045 0 0 0
351 -54.21465 -18.58688 167.79045 0 0 0
352 -54.86006 -18.44259 168.54054 0 0 0
353 -55.50547 -19.02003 169.04054 0 0 0
354 -56.15088 -18.87574 169.79062 0 0 0
355 -56.79630 -19.45319 170.29062 0 0 0
356 -57.44171 -19.30890 171.04070 0 0 0
357 -58.08712 -19.88634 171.54070 0 0 0
358 -58.73253 -19.74205 172.29078 0 0 0
359 -59.37795 -20.31950 172.79078 0 0 0
360 -60.02336 -20.17521 173.54086 0 0 0
361 -60.66877 -20.75265 174.04086 0 0 0
362 -61.31418 -20.60836 174.79095 0 0 0
363 -61.95960 -21.18580 175.29095 0 0 0
364 -62.60501 -21.04151 176.04103 0 0 0
365 -63.25042 -21.61896 176.54103 0 0 0
366 -63.89583 -21.47467 177.29111 0 0 0
367 -64.54125 -22.05211 177.79111 0 0 0
368 -65.18666 -21.90782 178.54119 0 0 0
369 -65.83207 -22.48527 179.04119 0 0 0
370 -66.47748 -22.34098 179.79127 0 0 0
371 -67.12290 -22.91842 180.29127 0 0 0
372 -67.76831 -22.77413 181.04136 0 0 0
373 -68.41372 -23.35158 181.54136 0 0 0
374 -69.05913 -23.20729 182.29144 0 0 0
375 -69.70454 -23.78473 182.79144 0 0 0
376 -70.34996 -23.64044 183.54152 0 0 0
377 -70.99537 -24.21789 184.04152 0 0 0
378 -71.64078 -24.07360 184.79160 0 0 0
379 -72.28619 -24.65104 185.29160 0 0 0
380 -72.93161 -24.50675 186.04168 0 0 0
381 -73.57702 -25.08420 186.54168 0 0 0
382 -74.22243 -24.93991 187.29177 0 0 0
383 -74.86784 -25.51735 187.79177 0 0 0
384 -75.51326 -25.37306 188.54185 0 0 0
385 -76.15867 -25.95051 189.04185 0 0 0
386 -76.80408 -25.80622 189.79193 0 0 0
387 -77.44949 -26.38366 190.29193 0 0 0
388 -78.09491 -26.23937 191.04201 0 0 0
389 -78.74032 -26.81682 191.54201 0 0 0
390 -79.38573 -26.67253 192.29209 0 0 0
391 -80.03114 -27.24997 192.79209 0 0 0
392 -80.67656 -27.10568 193.54218 0 0 0
393 -81.32197 -27.68313 194.04218 0 0 0
394 -81.96738 -27.53884 194.79226 0 0 0
395 -82.61279 -28.11628 195.29226 0 0 0
396 -83.25821 -27.97199 196.04234 0 0 0
397 -83.90362 -28.54944 196.54234 0 0 0
398 -84.54903 -28.40515 197.29242 0 0 0
399 -85.19444 -28.98259 197.79242 0 0 0
400 -85.83986 -28.83830 198.54250 0 0 0
ITEM: TIMESTEP
1000
ITEM: NUMBER OF ATOMS
400
ITEM: BOX BOUNDS pp pp pp
-1.0000000000000000e+03 1.0000000000000000e+03
-1.0000000000000000e+03 1.0000000000000000e+03
-1.0000000000000000e+03 1.0000000000000000e+03
ITEM: ATOMS id x y z ix iy iz
1 3.49891 -1.01333 2.84264 0 0 0
2 3.16381 -0.25679 3.34614 0 0 0
3 2.43992 -0.28646 3.91326 0 0 0
4 1.85465 -0.80061 4.52768 0 0 0
5 1.74423 -1.44800 5.28056 0 0 0
6 1.69594 -0.83450 6.04364 0 0 0
7 1.70340 -0.86101 7.01850 0 0 0
8 1.57525 -1.40005 7.81013 0 0 0
9 0.79125 -1.79948 8.16996 0 0 0
10 0.69789 -1.57608 9.09896 0 0 0
11 0.42179 -1.30445 9.97332 0 0 0
12 0.72725 -1.39450 10.92104 0 0 0
13 0.36575 -1.71579 11.73053 0 0 0
14 -0.40116 -2.15334 12.21381 0 0 0
15 -0.40341 -1.18700 12.25341 0 0 0
16 -0.66881 -0.91911 13.14895 0 0 0
17 -0.93548 -1.34328 13.98802 0 0 0
18 -1.15203 -1.92122 14.75229 0 0 0
19 -1.46143 -1.64980 15.61766 0 0 0
20 -1.50266 -2.12459 16.43754 0 0 0
21 -0.92009 -1.75349 17.14569 0 0 0
22 -1.04900 -1.68665 18.11814 0 0 0
23 -1.52897 -1.23298 18.89081 0 0 0
24 -1.00092 -1.08095 19.71338 0 0 0
25 -0.57911 -1.52968 20.41963 0 0 0
26 -0.60053 -1.08716 21.37222 0 0 0
27 -0.47406 -0.74874 22.25466 0 0 0
28 0.16405 -0.38334 23.01476 0 0 0
29 0.17036 -0.26699 23.98409 0 0 0
30 0.10459 -0.13515 24.98732 0 0 0
31 -0.07518 -0.32162 25.93430 0 0 0
32 0.32000 -0.11725 26.78752 0 0 0
33 0.07004 -0.14699 27.73109 0 0 0
34 -0.29987 0.22841 28.58887 0 0 0
35 -0.22813 0.03147 29.53433 0 0 0
36 0.02422 -0.58081 30.30868 0 0 0
37 -0.17612 -0.76526 31.28642 0 0 0
38 -0.36128 -1.16838 32.14259 0 0 0
39 0.37638 -1.31974 32.83467 0 0 0
40 0.22912 -0.95712 33.73808 0 0 0
41 -0.33797 -0.94017 34.54823 0 0 0
42 -0.85438 -0.97533 35.48138 0 0 0
43 -0.13663 -0.79505 36.11886 0 0 0
44 0.36229 -0.86506 36.93975 0 0 0
45 0.46170 -1.50327 37.63373 0 0 0
46 0.31995 -1.48023 38.63044 0 0 0
47 -0.06820 -1.19834 39.48077 0 0 0
48 -0.19865 -0.85695 40.47668 0 0 0
49 0.36137 -0.70837 41.24040 0 0 0
50 0.48745 -0.45237 42.20484 0 0 0
51 -0.12688 -0.08555 42.90687 0 0 0
52 -0.63440 0.21835 43.74237 0 0 0
53 -0.81801 -0.07262 44.78431 0 0 0
54 -0.66258 -0.12661 45.78428 0 0 0
55 -0.51851 -0.55262 46.61593 0 0 0
56 -0.16690 -0.17570 47.48993 0 0 0
57 0.01736 0.07404 48.50561 0 0 0
58 -0.20422 0.40008 49.39605 0 0 0
59 -0.08289 0.04809 50.43653 0 0 0
60 -0.17452 -0.35101 51.42595 0 0 0
61 -0.04077 -0.53610 52.34850 0 0 0
62 -0.57542 -0.99540 53.00268 0 0 0
63 -0.42287 -1.12898 53.97722 0 0 0
64 -0.45198 -1.34576 55.00563 0 0 0
65 -0.86626 -0.96051 55.75516 0 0 0
66 -1.37199 -0.37797 56.36985 0 0 0
67 -1.61051 -0.93532 57.18293 0 0 0
68 -2.02478 -0.96295 58.09904 0 0 0
69 -2.09615 -0.42238 58.93228 0 0 0
70 -2.02265 -0.23435 59.92622 0 0 0
71 -1.70162 0.25517 60.82527 0 0 0
72 -1.09904 -0.20318 61.40306 0 0 0
73 -0.75207 -0.26549 62.31789 0 0 0
74 -0.58920 -0.69924 63.19165 0 0 0
75 -0.63050 -0.11071 64.05117 0 0 0
76 -1.03549 0.26969 64.88331 0 0 0
77 -1.43335 0.79123 65.67748 0 0 0
78 -0.90478 0.86546 66.56472 0 0 0
79 -0.88278 0.42781 67.41698 0 0 0
80 -0.56208 0.22936 68.36074 0 0 0
81 -0.47987 0.44253 69.36992 0 0 0
82 0.12624 0.39361 70.11818 0 0 0
83 -0.07792 -0.18548 70.91203 0 0 0
84 0.61221 0.22260 71.49237 0 0 0
85 0.82294 0.20436 72.51610 0 0 0
86 1.10341 0.01948 73.41135 0 0 0
87 1.27174 0.03472 74.37411 0 0 0
88 1.13719 0.21211 75.33554 0 0 0
89 0.41564 0.31108 76.00619 0 0 0
90 0.86901 0.06616 76.88470 0 0 0
91 0.79284 0.11635 77.87112 0 0 0
92 0.73809 -0.07091 78.85791 0 0 0
93 0.72364 0.08973 79.83841 0 0 0
94 1.11945 -0.11026 80.70890 0 0 0
95 0.44450 0.05893 81.40437 0 0 0
96 -0.22549 -0.12667 82.17718 0 0 0
97 -0.36493 -0.67565 82.94120 0 0 0
98 -0.57142 -1.02665 83.86879 0 0 0
99 -0.58961 -0.86440 84.80635 0 0 0
100 -0.55008 -0.48384 85.68162 0 0 0
101 -0.33865 -0.50087 86.66871 0 0 0
102 -0.61203 -0.99194 87.51316 0 0 0
103 -0.39095 -1.04632 88.45613 0 0 0
104 -0.32981 -0.92512 89.49650 0 0 0
105 -0.56652 -0.91760 90.39400 0 0 0
106 -0.97412 -0.91126 91.27300 0 0 0
107 -0.41233 -0.99111 92.13331 0 0 0
108 -0.32327 -0.63088 93.10314 0 0 0
109 -0.48287 -0.65292 94.10557 0 0 0
110 -0.17669 -1.11923 94.83035 0 0 0
111 -0.56264 -0.90275 95.68051 0 0 0
112 -0.29956 -0.43044 96.41031 0 0 0
113 -0.69615 -0.18977 97.28062 0 0 0
114 -0.98077 -0.73463 98.10156 0 0 0
115 -0.87180 -1.00764 99.07716 0 0 0
116 -0.07413 -0.95384 99.77695 0 0 0
117 -0.29196 -0.89147 100.73708 0 0 0
118 -0.34095 -0.42564 101.59286 0 0 0
119 -0.12593 -0.08813 102.58469 0 0 0
120 -0.74505 -0.14221 103.33083 0 0 0
121 -1.04458 -0.30297 104.32304 0 0 0
122 -1.25961 0.00563 105.31006 0 0 0
123 -1.08300 0.08219 106.27277 0 0 0
124 -1.55155 0.00942 107.14620 0 0 0
125 -1.23406 -0.29730 108.09080 0 0 0
126 -1.15606 -0.34410 109.11900 0 0 0
127 -0.93410 -0.35405 110.14684 0 0 0
128 -1.62337 0.07561 110.79719 0 0 0
129 -1.72637 0.13122 111.79417 0 0 0
130 -1.44201 0.31365 112.76361 0 0 0
131 -0.92517 0.82203 113.40117 0 0 0
132 -0.70324 1.41226 114.24462 0 0 0
133 -0.86257 1.42548 115.21753 0 0 0
134 -0.53066 1.94790 115.94229 0 0 0
135 0.46421 1.96377 116.10196 0 0 0
136 1.52950 2.24387 116.08457 0 0 0
137 2.13459 3.02816 116.33073 0 0 0
138 2.64615 3.89069 116.26661 0 0 0
139 3.28495 4.49673 116.67858 0 0 0
140 4.26418 4.82881 116.65079 0 0 0
141 4.81871 5.52627 116.85559 0 0 0
142 5.61240 5.96879 117.14891 0 0 0
143 6.03215 6.78481 117.46307 0 0 0
144 6.92451 7.09177 117.66150 0 0 0
145 7.60651 7.84468 117.85435 0 0 0
146 8.04862 8.71434 118.33532 0 0 0
147 9.00453 8.89176 117.91510 0 0 0
148 10.09494 8.92867 118.01222 0 0 0
149 10.52956 9.75146 118.34692 0 0 0
150 11.02735 10.61507 118.50087 0 0 0
151 11.91103 11.06379 118.46724 0 0 0
152 12.56688 11.34877 117.87400 0 0 0
153 13.29523 11.95547 117.87559 0 0 0
154 14.07534 12.49516 118.06462 0 0 0
155 14.43166 13.44930 117.80653 0 0 0
156 15.42318 13.77177 118.03327 0 0 0
157 15.44179 14.71018 118.31487 0 0 0
158 16.09996 15.58913 118.31333 0 0 0
159 17.06109 15.95966 118.38019 0 0 0
160 17.48744 16.76398 118.52636 0 0 0
161 18.13446 17.59238 118.69983 0 0 0
162 19.07825 17.99697 118.74937 0 0 0
163 19.65311 18.78641 118.68892 0 0 0
164 20.10140 19.59587 118.99166 0 0 0
165 20.70313 20.38295 118.75016 0 0 0
166 21.50400 20.95712 119.17283 0 0 0
167 22.21704 21.51337 118.94071 0 0 0
168 22.67365 22.27474 119.38647 0 0 0
169 23.28781 22.97109 119.13757 0 0 0
170 23.57976 23.70902 119.73017 0 0 0
171 24.52843 23.84532 119.89268 0 0 0
172 24.69419 24.61546 120.59274 0 0 0
173 25.23616 25.42127 120.89030 0 0 0
174 26.05690 25.81400 121.42263 0 0 0
175 26.88543 26.28118 121.52549 0 0 0
176 26.95339 27.14927 121.87902 0 0 0
177 27.33587 27.58655 122.62419 0 0 0
178 28.16798 28.12387 122.44533 0 0 0
179 28.72623 28.76571 122.97523 0 0 0
180 29.12729 29.67108 122.73441 0 0 0
181 29.86979 30.24899 122.84880 0 0 0
182 30.46952 31.08705 122.80670 0 0 0
183 31.07164 31.85836 123.01638 0 0 0
184 31.26769 32.76845 123.01061 0 0 0
185 31.86354 33.52926 123.02698 0 0 0
186 32.51532 34.01824 123.58184 0 0 0
187 33.10656 34.65677 123.21306 0 0 0
188 33.79309 35.35748 123.23449 0 0 0
189 34.45102 36.03936 123.20378 0 0 0
190 34.89259 36.83523 123.48129 0 0 0
191 35.64601 37.46675 123.42070 0 0 0
192 36.34404 38.15168 123.29574 0 0 0
193 37.22827 38.51329 123.55392 0 0 0
194 38.03601 39.07314 123.79476 0 0 0
195 38.23143 39.59603 124.63401 0 0 0
196 39.28403 39.80296 124.94670 0 0 0
197 40.00612 40.42571 124.69328 0 0 0
198 40.75926 41.15076 124.86344 0 0 0
199 41.46017 41.81932 124.82665 0 0 0
200 42.20449 42.47749 124.55895 0 0 0
201 42.88845 43.17922 124.71272 0 0 0
202 43.38345 43.99542 124.91803 0 0 0
203 44.26425 44.56272 124.75795 0 0 0
204 44.84085 45.32678 124.64481 0 0 0
205 45.76918 45.40258 125.04265 0 0 0
206 46.48253 46.03495 125.21544 0 0 0
207 47.00165 46.86875 125.32564 0 0 0
208 47.43149 47.85080 125.15699 0 0 0
209 48.19374 48.40878 125.37548 0 0 0
210 48.82157 49.06615 125.03290 0 0 0
211 49.46550 49.77430 125.30650 0 0 0
212 49.92680 50.67978 125.48302 0 0 0
213 50.48819 51.44726 125.69987 0 0 0
214 50.95606 52.20794 126.08857 0 0 0
215 51.61494 52.90439 126.30647 0 0 0
216 52.34205 53.56247 126.05960 0 0 0
217 52.60697 54.47526 126.26366 0 0 0
218 53.23663 55.27474 126.22110 0 0 0
219 54.15704 55.75715 126.25101 0 0 0
220 54.95195 56.12123 126.65312 0 0 0
221 55.73152 56.47622 127.14319 0 0 0
222 56.63980 57.01967 127.43904 0 0 0
223 57.57757 57.48063 127.69357 0 0 0
224 57.82300 58.38420 127.36293 0 0 0
225 58.61536 58.93743 127.31678 0 0 0
226 59.33663 59.59749 127.41845 0 0 0
227 60.09226 60.26276 127.40324 0 0 0
228 60.15428 61.18934 127.66646 0 0 0
229 60.29503 62.12408 127.81615 0 0 0
230 61.00481 62.73531 127.48679 0 0 0
231 61.95692 62.96790 127.66002 0 0 0
232 62.56288 63.51909 128.22787 0 0 0
233 63.29096 63.92550 128.71741 0 0 0
234 64.10025 64.51480 128.56597 0 0 0
235 64.75635 65.15603 128.95212 0 0 0
236 65.15787 66.05830 129.10706 0 0 0
237 65.54102 66.85383 128.75615 0 0 0
238 66.40562 67.37335 128.49274 0 0 0
239 67.19601 67.89926 128.33018 0 0 0
240 67.95606 68.41955 128.54518 0 0 0
241 68.58288 69.09662 128.81310 0 0 0
242 69.40348 69.67367 128.70776 0 0 0
243 70.12284 70.39441 128.93389 0 0 0
244 70.82416 71.07825 128.90477 0 0 0
245 71.46902 71.15011 129.64471 0 0 0
246 71.94993 72.05335 129.72986 0 0 0
247 72.49439 72.94802 129.64450 0 0 0
248 73.27862 73.51603 129.92601 0 0 0
249 74.02263 74.19502 130.03123 0 0 0
250 74.82145 74.73213 130.41008 0 0 0
251 75.16777 74.98688 131.30597 0 0 0
252 75.64897 75.60378 131.94475 0 0 0
253 75.77077 76.53821 131.74311 0 0 0
254 76.54121 77.15264 131.69595 0 0 0
255 76.99150 78.01871 131.72650 0 0 0
256 77.24368 78.76535 131.14989 0 0 0
257 78.20631 78.75468 131.20477 0 0 0
258 78.53347 79.61375 131.48535 0 0 0
259 78.88497 80.35853 130.88193 0 0 0
260 79.23800 81.22597 131.32722 0 0 0
261 78.85691 82.01461 130.83543 0 0 0
262 79.46461 82.75009 131.11294 0 0 0
263 80.37374 82.31586 131.19062 0 0 0
264 80.30385 83.30298 131.00659 0 0 0
265 80.04149 84.22360 131.30184 0 0 0
266 80.99483 84.64138 131.17340 0 0 0
267 81.65677 84.88092 130.57632 0 0 0
268 -1.22359 1.31319 116.46421 0 0 0
269 -1.93433 0.63974 116.72579 0 0 0
270 -2.08586 -0.08446 117.32954 0 0 0
271 -2.98940 -0.10335 117.78934 0 0 0
272 -3.46142 -0.68303 118.47023 0 0 0
273 -4.19970 -0.94110 119.05538 0 0 0
274 -4.95348 -1.16008 119.69936 0 0 0
275 -5.71834 -0.89479 120.35477 0 0 0
276 -6.58064 -1.36900 120.81214 0 0 0
277 -7.04022 -1.25572 121.70524 0 0 0
278 -7.55018 -0.96523 122.43217 0 0 0
279 -8.05050 -1.51610 123.04800 0 0 0
280 -8.70106 -1.88632 123.76411 0 0 0
281 -9.58071 -1.97926 124.19717 0 0 0
282 -10.25016 -1.95398 124.89113 0 0 0
283 -10.97565 -2.24774 125.42756 0 0 0
284 -11.82686 -2.61647 125.83417 0 0 0
285 -12.30560 -2.96668 126.70295 0 0 0
286 -13.19832 -3.27206 127.00513 0 0 0
287 -14.02345 -3.76906 127.19230 0 0 0
288 -14.86603 -3.87837 127.68409 0 0 0
289 -15.80566 -4.02429 128.12369 0 0 0
290 -16.15155 -3.84789 128.98800 0 0 0
291 -16.21323 -4.21587 129.91277 0 0 0
292 -16.62555 -5.04796 130.22835 0 0 0
293 -17.25873 -5.68220 130.84222 0 0 0
294 -17.65046 -6.04340 131.74683 0 0 0
295 -18.22649 -6.54991 132.36468 0 0 0
296 -18.91570 -6.94179 132.91309 0 0 0
297 -19.40395 -7.02766 133.80944 0 0 0
298 -20.09497 -7.34258 134.51046 0 0 0
299 -20.78907 -7.52559 135.23576 0 0 0
300 -21.07852 -7.17130 136.10305 0 0 0
301 -21.72078 -6.87949 136.75052 0 0 0
302 -22.61649 -7.05589 137.05683 0 0 0
303 -23.40261 -7.30156 137.55729 0 0 0
304 -23.82356 -7.55780 138.40007 0 0 0
305 -24.44374 -8.06189 139.03014 0 0 0
306 -25.13104 -8.40864 139.65932 0 0 0
307 -25.46604 -8.36390 140.63289 0 0 0
308 -26.34366 -8.44759 141.13403 0 0 0
309 -26.67493 -8.48765 142.05854 0 0 0
310 -26.86069 -8.87813 142.94455 0 0 0
311 -27.62421 -9.42067 143.12739 0 0 0
312 -28.34764 -9.79521 143.55791 0 0 0
313 -29.28395 -9.77264 144.05293 0 0 0
314 -29.75590 -10.61874 144.37571 0 0 0
315 -30.63100 -10.80790 144.90686 0 0 0
316 -31.56357 -10.82708 145.14084 0 0 0
317 -32.09628 -10.77328 145.90673 0 0 0
318 -32.74199 -10.94694 146.63346 0 0 0
319 -33.45247 -11.51378 146.87984 0 0 0
320 -34.44080 -11.65722 147.22765 0 0 0
321 -35.31445 -11.98784 147.59519 0 0 0
322 -35.84514 -12.24828 148.39877 0 0 0
323 -36.54025 -12.28059 149.15832 0 0 0
324 -36.91033 -12.49218 150.03500 0 0 0
325 -37.30971 -12.45069 150.94924 0 0 0
326 -37.90449 -12.61561 151.69806 0 0 0
327 -38.37692 -12.77057 152.69109 0 0 0
328 -38.84909 -12.88035 153.56054 0 0 0
329 -39.54171 -12.79199 154.20972 0 0 0
330 -40.20567 -12.89740 155.04132 0 0 0
331 -40.72402 -12.97380 155.87156 0 0 0
332 -41.11736 -13.65125 156.47358 0 0 0
333 -41.71136 -13.93305 157.18869 0 0 0
334 -42.66461 -14.15457 157.39950 0 0 0
335 -43.37634 -14.74058 157.75733 0 0 0
336 -43.91497 -15.53482 158.17465 0 0 0
337 -44.75214 -15.41690 158.61601 0 0 0
338 -45.73090 -15.41054 158.93810 0 0 0
339 -46.14757 -15.56129 159.78856 0 0 0
340 -46.86499 -15.62531 160.50045 0 0 0
341 -47.67685 -15.72436 161.14299 0 0 0
342 -48.41518 -16.39803 161.40777 0 0 0
343 -49.21630 -16.26877 162.10131 0 0 0
344 -49.58606 -16.50052 163.00352 0 0 0
345 -50.52873 -16.58259 163.32398 0 0 0
346 -50.97053 -16.89218 164.13688 0 0 0
347 -51.72456 -17.05795 164.88633 0 0 0
348 -52.39261 -17.58838 165.31085 0 0 0
349 -52.75786 -18.27669 165.97255 0 0 0
350 -53.19443 -18.70591 166.75694 0 0 0
351 -53.75157 -19.27304 167.33423 0 0 0
352 -54.63009 -19.19458 167.91289 0 0 0
353 -55.36249 -19.12235 168.54777 0 0 0
354 -56.09650 -19.23675 169.30247 0 0 0
355 -56.96699 -19.33276 169.82309 0 0 0
356 -57.60696 -19.22204 170.53528 0 0 0
357 -58.30699 -19.36674 171.28558 0 0 0
358 -58.51726 -19.86486 172.10250 0 0 0
359 -59.40379 -19.87954 172.61386 0 0 0
360 -60.03390 -20.45564 173.06422 0 0 0
361 -60.55617 -20.46388 173.90748 0 0 0
362 -60.92158 -20.83966 174.77125 0 0 0
363 -60.95719 -21.07761 175.72768 0 0 0
364 -61.88357 -21.44750 175.93611 0 0 0
365 -62.79772 -21.56379 175.73182 0 0 0
366 -63.31414 -21.94437 176.48344 0 0 0
367 -63.75486 -21.95477 177.41949 0 0 0
368 -64.42524 -22.33925 178.03172 0 0 0
369 -64.59593 -22.36474 178.98290 0 0 0
370 -65.34147 -21.86320 179.42118 0 0 0
371 -65.82728 -22.00623 180.30418 0 0 0
372 -66.57539 -22.55790 180.76267 0 0 0
373 -66.55593 -22.68138 181.76256 0 0 0
374 -67.04409 -22.93071 182.58992 0 0 0
375 -67.89854 -22.86366 183.11056 0 0 0
376 -68.35254 -22.87893 184.01402 0 0 0
377 -69.33883 -23.28561 184.02580 0 0 0
378 -69.88248 -23.21918 184.92083 0 0 0
379 -70.70722 -23.13410 185.41961 0 0 0
380 -71.60394 -23.04601 185.79311 0 0 0
381 -72.17230 -23.40670 186.56166 0 0 0
382 -72.91255 -23.80949 187.05430 0 0 0
383 -73.71707 -24.02766 187.54884 0 0 0
384 -74.20362 -24.52998 188.24302 0 0 0
385 -74.40194 -24.10214 189.14799 0 0 0
386 -75.27189 -24.16825 189.42541 0 0 0
387 -76.12368 -24.52593 189.79882 0 0 0